# vtk DataFile Version 3.1
inversion grid cell indices
ASCII
DATASET UNSTRUCTURED_GRID
POINTS        26064 float
  0.899519E+02 -0.110801E+03 -0.500000E+01
  0.924519E+02 -0.106471E+03 -0.500000E+01
  0.881218E+02 -0.103971E+03 -0.500000E+01
  0.856218E+02 -0.108301E+03 -0.500000E+01
  0.899519E+02 -0.110801E+03  0.000000E+00
  0.924519E+02 -0.106471E+03  0.000000E+00
  0.881218E+02 -0.103971E+03  0.000000E+00
  0.856218E+02 -0.108301E+03  0.000000E+00
  0.924519E+02 -0.106471E+03 -0.500000E+01
  0.949519E+02 -0.102141E+03 -0.500000E+01
  0.906218E+02 -0.996410E+02 -0.500000E+01
  0.881218E+02 -0.103971E+03 -0.500000E+01
  0.924519E+02 -0.106471E+03  0.000000E+00
  0.949519E+02 -0.102141E+03  0.000000E+00
  0.906218E+02 -0.996410E+02  0.000000E+00
  0.881218E+02 -0.103971E+03  0.000000E+00
  0.949519E+02 -0.102141E+03 -0.500000E+01
  0.974519E+02 -0.978109E+02 -0.500000E+01
  0.931218E+02 -0.953109E+02 -0.500000E+01
  0.906218E+02 -0.996410E+02 -0.500000E+01
  0.949519E+02 -0.102141E+03  0.000000E+00
  0.974519E+02 -0.978109E+02  0.000000E+00
  0.931218E+02 -0.953109E+02  0.000000E+00
  0.906218E+02 -0.996410E+02  0.000000E+00
  0.974519E+02 -0.978109E+02 -0.500000E+01
  0.999519E+02 -0.934808E+02 -0.500000E+01
  0.956218E+02 -0.909808E+02 -0.500000E+01
  0.931218E+02 -0.953109E+02 -0.500000E+01
  0.974519E+02 -0.978109E+02  0.000000E+00
  0.999519E+02 -0.934808E+02  0.000000E+00
  0.956218E+02 -0.909808E+02  0.000000E+00
  0.931218E+02 -0.953109E+02  0.000000E+00
  0.999519E+02 -0.934808E+02 -0.500000E+01
  0.102452E+03 -0.891506E+02 -0.500000E+01
  0.981218E+02 -0.866506E+02 -0.500000E+01
  0.956218E+02 -0.909808E+02 -0.500000E+01
  0.999519E+02 -0.934808E+02  0.000000E+00
  0.102452E+03 -0.891506E+02  0.000000E+00
  0.981218E+02 -0.866506E+02  0.000000E+00
  0.956218E+02 -0.909808E+02  0.000000E+00
  0.102452E+03 -0.891506E+02 -0.500000E+01
  0.104952E+03 -0.848205E+02 -0.500000E+01
  0.100622E+03 -0.823205E+02 -0.500000E+01
  0.981218E+02 -0.866506E+02 -0.500000E+01
  0.102452E+03 -0.891506E+02  0.000000E+00
  0.104952E+03 -0.848205E+02  0.000000E+00
  0.100622E+03 -0.823205E+02  0.000000E+00
  0.981218E+02 -0.866506E+02  0.000000E+00
  0.104952E+03 -0.848205E+02 -0.500000E+01
  0.107452E+03 -0.804904E+02 -0.500000E+01
  0.103122E+03 -0.779904E+02 -0.500000E+01
  0.100622E+03 -0.823205E+02 -0.500000E+01
  0.104952E+03 -0.848205E+02  0.000000E+00
  0.107452E+03 -0.804904E+02  0.000000E+00
  0.103122E+03 -0.779904E+02  0.000000E+00
  0.100622E+03 -0.823205E+02  0.000000E+00
  0.107452E+03 -0.804904E+02 -0.500000E+01
  0.109952E+03 -0.761602E+02 -0.500000E+01
  0.105622E+03 -0.736602E+02 -0.500000E+01
  0.103122E+03 -0.779904E+02 -0.500000E+01
  0.107452E+03 -0.804904E+02  0.000000E+00
  0.109952E+03 -0.761602E+02  0.000000E+00
  0.105622E+03 -0.736602E+02  0.000000E+00
  0.103122E+03 -0.779904E+02  0.000000E+00
  0.109952E+03 -0.761602E+02 -0.500000E+01
  0.112452E+03 -0.718301E+02 -0.500000E+01
  0.108122E+03 -0.693301E+02 -0.500000E+01
  0.105622E+03 -0.736602E+02 -0.500000E+01
  0.109952E+03 -0.761602E+02  0.000000E+00
  0.112452E+03 -0.718301E+02  0.000000E+00
  0.108122E+03 -0.693301E+02  0.000000E+00
  0.105622E+03 -0.736602E+02  0.000000E+00
  0.112452E+03 -0.718301E+02 -0.500000E+01
  0.114952E+03 -0.675000E+02 -0.500000E+01
  0.110622E+03 -0.650000E+02 -0.500000E+01
  0.108122E+03 -0.693301E+02 -0.500000E+01
  0.112452E+03 -0.718301E+02  0.000000E+00
  0.114952E+03 -0.675000E+02  0.000000E+00
  0.110622E+03 -0.650000E+02  0.000000E+00
  0.108122E+03 -0.693301E+02  0.000000E+00
  0.114952E+03 -0.675000E+02 -0.500000E+01
  0.117452E+03 -0.631699E+02 -0.500000E+01
  0.113122E+03 -0.606699E+02 -0.500000E+01
  0.110622E+03 -0.650000E+02 -0.500000E+01
  0.114952E+03 -0.675000E+02  0.000000E+00
  0.117452E+03 -0.631699E+02  0.000000E+00
  0.113122E+03 -0.606699E+02  0.000000E+00
  0.110622E+03 -0.650000E+02  0.000000E+00
  0.117452E+03 -0.631699E+02 -0.500000E+01
  0.119952E+03 -0.588397E+02 -0.500000E+01
  0.115622E+03 -0.563397E+02 -0.500000E+01
  0.113122E+03 -0.606699E+02 -0.500000E+01
  0.117452E+03 -0.631699E+02  0.000000E+00
  0.119952E+03 -0.588397E+02  0.000000E+00
  0.115622E+03 -0.563397E+02  0.000000E+00
  0.113122E+03 -0.606699E+02  0.000000E+00
  0.119952E+03 -0.588397E+02 -0.500000E+01
  0.122452E+03 -0.545096E+02 -0.500000E+01
  0.118122E+03 -0.520096E+02 -0.500000E+01
  0.115622E+03 -0.563397E+02 -0.500000E+01
  0.119952E+03 -0.588397E+02  0.000000E+00
  0.122452E+03 -0.545096E+02  0.000000E+00
  0.118122E+03 -0.520096E+02  0.000000E+00
  0.115622E+03 -0.563397E+02  0.000000E+00
  0.122452E+03 -0.545096E+02 -0.500000E+01
  0.124952E+03 -0.501795E+02 -0.500000E+01
  0.120622E+03 -0.476795E+02 -0.500000E+01
  0.118122E+03 -0.520096E+02 -0.500000E+01
  0.122452E+03 -0.545096E+02  0.000000E+00
  0.124952E+03 -0.501795E+02  0.000000E+00
  0.120622E+03 -0.476795E+02  0.000000E+00
  0.118122E+03 -0.520096E+02  0.000000E+00
  0.124952E+03 -0.501795E+02 -0.500000E+01
  0.127452E+03 -0.458494E+02 -0.500000E+01
  0.123122E+03 -0.433494E+02 -0.500000E+01
  0.120622E+03 -0.476795E+02 -0.500000E+01
  0.124952E+03 -0.501795E+02  0.000000E+00
  0.127452E+03 -0.458494E+02  0.000000E+00
  0.123122E+03 -0.433494E+02  0.000000E+00
  0.120622E+03 -0.476795E+02  0.000000E+00
  0.127452E+03 -0.458494E+02 -0.500000E+01
  0.129952E+03 -0.415192E+02 -0.500000E+01
  0.125622E+03 -0.390192E+02 -0.500000E+01
  0.123122E+03 -0.433494E+02 -0.500000E+01
  0.127452E+03 -0.458494E+02  0.000000E+00
  0.129952E+03 -0.415192E+02  0.000000E+00
  0.125622E+03 -0.390192E+02  0.000000E+00
  0.123122E+03 -0.433494E+02  0.000000E+00
  0.129952E+03 -0.415192E+02 -0.500000E+01
  0.132452E+03 -0.371891E+02 -0.500000E+01
  0.128122E+03 -0.346891E+02 -0.500000E+01
  0.125622E+03 -0.390192E+02 -0.500000E+01
  0.129952E+03 -0.415192E+02  0.000000E+00
  0.132452E+03 -0.371891E+02  0.000000E+00
  0.128122E+03 -0.346891E+02  0.000000E+00
  0.125622E+03 -0.390192E+02  0.000000E+00
  0.132452E+03 -0.371891E+02 -0.500000E+01
  0.134952E+03 -0.328590E+02 -0.500000E+01
  0.130622E+03 -0.303590E+02 -0.500000E+01
  0.128122E+03 -0.346891E+02 -0.500000E+01
  0.132452E+03 -0.371891E+02  0.000000E+00
  0.134952E+03 -0.328590E+02  0.000000E+00
  0.130622E+03 -0.303590E+02  0.000000E+00
  0.128122E+03 -0.346891E+02  0.000000E+00
  0.134952E+03 -0.328590E+02 -0.500000E+01
  0.137452E+03 -0.285289E+02 -0.500000E+01
  0.133122E+03 -0.260289E+02 -0.500000E+01
  0.130622E+03 -0.303590E+02 -0.500000E+01
  0.134952E+03 -0.328590E+02  0.000000E+00
  0.137452E+03 -0.285289E+02  0.000000E+00
  0.133122E+03 -0.260289E+02  0.000000E+00
  0.130622E+03 -0.303590E+02  0.000000E+00
  0.137452E+03 -0.285289E+02 -0.500000E+01
  0.139952E+03 -0.241987E+02 -0.500000E+01
  0.135622E+03 -0.216987E+02 -0.500000E+01
  0.133122E+03 -0.260289E+02 -0.500000E+01
  0.137452E+03 -0.285289E+02  0.000000E+00
  0.139952E+03 -0.241987E+02  0.000000E+00
  0.135622E+03 -0.216987E+02  0.000000E+00
  0.133122E+03 -0.260289E+02  0.000000E+00
  0.856218E+02 -0.108301E+03 -0.500000E+01
  0.881218E+02 -0.103971E+03 -0.500000E+01
  0.837917E+02 -0.101471E+03 -0.500000E+01
  0.812917E+02 -0.105801E+03 -0.500000E+01
  0.856218E+02 -0.108301E+03  0.000000E+00
  0.881218E+02 -0.103971E+03  0.000000E+00
  0.837917E+02 -0.101471E+03  0.000000E+00
  0.812917E+02 -0.105801E+03  0.000000E+00
  0.881218E+02 -0.103971E+03 -0.500000E+01
  0.906218E+02 -0.996410E+02 -0.500000E+01
  0.862917E+02 -0.971410E+02 -0.500000E+01
  0.837917E+02 -0.101471E+03 -0.500000E+01
  0.881218E+02 -0.103971E+03  0.000000E+00
  0.906218E+02 -0.996410E+02  0.000000E+00
  0.862917E+02 -0.971410E+02  0.000000E+00
  0.837917E+02 -0.101471E+03  0.000000E+00
  0.906218E+02 -0.996410E+02 -0.500000E+01
  0.931218E+02 -0.953109E+02 -0.500000E+01
  0.887917E+02 -0.928109E+02 -0.500000E+01
  0.862917E+02 -0.971410E+02 -0.500000E+01
  0.906218E+02 -0.996410E+02  0.000000E+00
  0.931218E+02 -0.953109E+02  0.000000E+00
  0.887917E+02 -0.928109E+02  0.000000E+00
  0.862917E+02 -0.971410E+02  0.000000E+00
  0.931218E+02 -0.953109E+02 -0.500000E+01
  0.956218E+02 -0.909808E+02 -0.500000E+01
  0.912917E+02 -0.884808E+02 -0.500000E+01
  0.887917E+02 -0.928109E+02 -0.500000E+01
  0.931218E+02 -0.953109E+02  0.000000E+00
  0.956218E+02 -0.909808E+02  0.000000E+00
  0.912917E+02 -0.884808E+02  0.000000E+00
  0.887917E+02 -0.928109E+02  0.000000E+00
  0.956218E+02 -0.909808E+02 -0.500000E+01
  0.981218E+02 -0.866506E+02 -0.500000E+01
  0.937917E+02 -0.841506E+02 -0.500000E+01
  0.912917E+02 -0.884808E+02 -0.500000E+01
  0.956218E+02 -0.909808E+02  0.000000E+00
  0.981218E+02 -0.866506E+02  0.000000E+00
  0.937917E+02 -0.841506E+02  0.000000E+00
  0.912917E+02 -0.884808E+02  0.000000E+00
  0.981218E+02 -0.866506E+02 -0.500000E+01
  0.100622E+03 -0.823205E+02 -0.500000E+01
  0.962917E+02 -0.798205E+02 -0.500000E+01
  0.937917E+02 -0.841506E+02 -0.500000E+01
  0.981218E+02 -0.866506E+02  0.000000E+00
  0.100622E+03 -0.823205E+02  0.000000E+00
  0.962917E+02 -0.798205E+02  0.000000E+00
  0.937917E+02 -0.841506E+02  0.000000E+00
  0.100622E+03 -0.823205E+02 -0.500000E+01
  0.103122E+03 -0.779904E+02 -0.500000E+01
  0.987917E+02 -0.754904E+02 -0.500000E+01
  0.962917E+02 -0.798205E+02 -0.500000E+01
  0.100622E+03 -0.823205E+02  0.000000E+00
  0.103122E+03 -0.779904E+02  0.000000E+00
  0.987917E+02 -0.754904E+02  0.000000E+00
  0.962917E+02 -0.798205E+02  0.000000E+00
  0.103122E+03 -0.779904E+02 -0.500000E+01
  0.105622E+03 -0.736602E+02 -0.500000E+01
  0.101292E+03 -0.711602E+02 -0.500000E+01
  0.987917E+02 -0.754904E+02 -0.500000E+01
  0.103122E+03 -0.779904E+02  0.000000E+00
  0.105622E+03 -0.736602E+02  0.000000E+00
  0.101292E+03 -0.711602E+02  0.000000E+00
  0.987917E+02 -0.754904E+02  0.000000E+00
  0.105622E+03 -0.736602E+02 -0.500000E+01
  0.108122E+03 -0.693301E+02 -0.500000E+01
  0.103792E+03 -0.668301E+02 -0.500000E+01
  0.101292E+03 -0.711602E+02 -0.500000E+01
  0.105622E+03 -0.736602E+02  0.000000E+00
[...]
CELL_DATA         3258
SCALARS cell_index float 1
LOOKUP_TABLE default
  0.100000E+01
  0.200000E+01
  0.300000E+01
  0.400000E+01
  0.500000E+01
  0.600000E+01
  0.700000E+01
  0.800000E+01
  0.900000E+01
  0.100000E+02
  0.110000E+02
  0.120000E+02
  0.130000E+02
  0.140000E+02
  0.150000E+02
  0.160000E+02
  0.170000E+02
  0.180000E+02
  0.190000E+02
  0.200000E+02
  0.210000E+02
  0.220000E+02
  0.230000E+02
  0.240000E+02
  0.250000E+02
  0.260000E+02
  0.270000E+02
  0.280000E+02
  0.290000E+02
  0.300000E+02
  0.310000E+02
  0.320000E+02
  0.330000E+02
  0.340000E+02
  0.350000E+02
  0.360000E+02
  0.370000E+02
  0.380000E+02
  0.390000E+02
  0.400000E+02
  0.410000E+02
  0.420000E+02
  0.430000E+02
  0.440000E+02
  0.450000E+02
  0.460000E+02
  0.470000E+02
  0.480000E+02
  0.490000E+02
  0.500000E+02
  0.510000E+02
  0.520000E+02
  0.530000E+02
  0.540000E+02
  0.550000E+02
  0.560000E+02
  0.570000E+02
  0.580000E+02
  0.590000E+02
  0.600000E+02
  0.610000E+02
  0.620000E+02
  0.630000E+02
  0.640000E+02
  0.650000E+02
  0.660000E+02
  0.670000E+02
  0.680000E+02
  0.690000E+02
  0.700000E+02
  0.710000E+02
  0.720000E+02
  0.730000E+02
  0.740000E+02
  0.750000E+02
  0.760000E+02
  0.770000E+02
  0.780000E+02
  0.790000E+02
  0.800000E+02
  0.810000E+02
  0.820000E+02
  0.830000E+02
  0.840000E+02
  0.850000E+02
  0.860000E+02
  0.870000E+02
  0.880000E+02
  0.890000E+02
  0.900000E+02
  0.910000E+02
  0.920000E+02
  0.930000E+02
  0.940000E+02
  0.950000E+02
  0.960000E+02
  0.970000E+02
  0.980000E+02
  0.990000E+02
  0.100000E+03
  0.101000E+03
  0.102000E+03
  0.103000E+03
  0.104000E+03
  0.105000E+03
  0.106000E+03
  0.107000E+03
  0.108000E+03
  0.109000E+03
  0.110000E+03
  0.111000E+03
  0.112000E+03
  0.113000E+03
  0.114000E+03
  0.115000E+03
  0.116000E+03
  0.117000E+03
  0.118000E+03
  0.119000E+03
  0.120000E+03
  0.121000E+03
  0.122000E+03
  0.123000E+03
  0.124000E+03
  0.125000E+03
  0.126000E+03
  0.127000E+03
  0.128000E+03
  0.129000E+03
  0.130000E+03
  0.131000E+03
  0.132000E+03
  0.133000E+03
  0.134000E+03
  0.135000E+03
  0.136000E+03
  0.137000E+03
  0.138000E+03
  0.139000E+03
  0.140000E+03
  0.141000E+03
  0.142000E+03
  0.143000E+03
  0.144000E+03
  0.145000E+03
  0.146000E+03
  0.147000E+03
  0.148000E+03
  0.149000E+03
  0.150000E+03
  0.151000E+03
  0.152000E+03
  0.153000E+03
  0.154000E+03
  0.155000E+03
  0.156000E+03
  0.157000E+03
  0.158000E+03
  0.159000E+03
  0.160000E+03
  0.161000E+03
  0.162000E+03
  0.163000E+03
  0.164000E+03
  0.165000E+03
  0.166000E+03
  0.167000E+03
  0.168000E+03
  0.169000E+03
  0.170000E+03
  0.171000E+03
  0.172000E+03
  0.173000E+03
  0.174000E+03
  0.175000E+03
  0.176000E+03
  0.177000E+03
  0.178000E+03
  0.179000E+03
  0.180000E+03
  0.181000E+03
  0.182000E+03
  0.183000E+03
  0.184000E+03
  0.185000E+03
  0.186000E+03
  0.187000E+03
  0.188000E+03
  0.189000E+03
  0.190000E+03
  0.191000E+03
  0.192000E+03
  0.193000E+03
  0.194000E+03
  0.195000E+03
  0.196000E+03
  0.197000E+03
  0.198000E+03
  0.199000E+03
  0.200000E+03
  0.201000E+03
  0.202000E+03
  0.203000E+03
  0.204000E+03
  0.205000E+03
  0.206000E+03
  0.207000E+03
  0.208000E+03
  0.209000E+03
  0.210000E+03
  0.211000E+03
  0.212000E+03
  0.213000E+03
  0.214000E+03
  0.215000E+03
  0.216000E+03
  0.217000E+03
  0.218000E+03
  0.219000E+03
  0.220000E+03
  0.221000E+03
  0.222000E+03
  0.223000E+03
  0.224000E+03
  0.225000E+03
  0.226000E+03
  0.227000E+03
  0.228000E+03
  0.229000E+03
  0.230000E+03
  0.231000E+03
  0.232000E+03
  0.233000E+03
  0.234000E+03
  0.235000E+03
  0.236000E+03
  0.237000E+03
  0.238000E+03
  0.239000E+03
  0.240000E+03
  0.241000E+03
  0.242000E+03
  0.243000E+03
  0.244000E+03
  0.245000E+03
  0.246000E+03
  0.247000E+03
  0.248000E+03
  0.249000E+03
  0.250000E+03
  0.251000E+03
  0.252000E+03
  0.253000E+03
  0.254000E+03
  0.255000E+03
  0.256000E+03
  0.257000E+03
  0.258000E+03
  0.259000E+03
  0.260000E+03
  0.261000E+03
  0.262000E+03
  0.263000E+03
  0.264000E+03
  0.265000E+03
  0.266000E+03
  0.267000E+03
  0.268000E+03
  0.269000E+03
  0.270000E+03
  0.271000E+03
  0.272000E+03
  0.273000E+03
  0.274000E+03
  0.275000E+03
  0.276000E+03
  0.277000E+03
  0.278000E+03
  0.279000E+03
  0.280000E+03
  0.281000E+03
  0.282000E+03
  0.283000E+03
  0.284000E+03
  0.285000E+03
  0.286000E+03
  0.287000E+03
  0.288000E+03
  0.289000E+03
  0.290000E+03
  0.291000E+03
  0.292000E+03
  0.293000E+03
  0.294000E+03
  0.295000E+03
  0.296000E+03
  0.297000E+03
  0.298000E+03
  0.299000E+03
  0.300000E+03
  0.301000E+03
  0.302000E+03
  0.303000E+03
  0.304000E+03
  0.305000E+03
  0.306000E+03
  0.307000E+03
  0.308000E+03
  0.309000E+03
  0.310000E+03
  0.311000E+03
  0.312000E+03
  0.313000E+03
  0.314000E+03
  0.315000E+03
  0.316000E+03
  0.317000E+03
  0.318000E+03
  0.319000E+03
  0.320000E+03
  0.321000E+03
  0.322000E+03
  0.323000E+03
  0.324000E+03
  0.325000E+03
  0.326000E+03
  0.327000E+03
  0.328000E+03
  0.329000E+03
  0.330000E+03
  0.331000E+03
  0.332000E+03
  0.333000E+03
  0.334000E+03
  0.335000E+03
  0.336000E+03
  0.337000E+03
  0.338000E+03
  0.339000E+03
  0.340000E+03
  0.341000E+03
  0.342000E+03
  0.343000E+03
  0.344000E+03
  0.345000E+03
  0.346000E+03
  0.347000E+03
  0.348000E+03
  0.349000E+03
  0.350000E+03
  0.351000E+03
  0.352000E+03
  0.353000E+03
  0.354000E+03
  0.355000E+03
  0.356000E+03
  0.357000E+03
  0.358000E+03
  0.359000E+03
  0.360000E+03
  0.361000E+03
  0.362000E+03
  0.363000E+03
  0.364000E+03
  0.365000E+03
  0.366000E+03
  0.367000E+03
  0.368000E+03
  0.369000E+03
  0.370000E+03
  0.371000E+03
  0.372000E+03
  0.373000E+03
  0.374000E+03
  0.375000E+03
  0.376000E+03
  0.377000E+03
  0.378000E+03
  0.379000E+03
  0.380000E+03
  0.381000E+03
  0.382000E+03
  0.383000E+03
  0.384000E+03
  0.385000E+03
  0.386000E+03
  0.387000E+03
  0.388000E+03
  0.389000E+03
  0.390000E+03
  0.391000E+03
  0.392000E+03
  0.393000E+03
  0.394000E+03
  0.395000E+03
  0.396000E+03
  0.397000E+03
  0.398000E+03
  0.399000E+03
  0.400000E+03
  0.401000E+03
  0.402000E+03
  0.403000E+03
  0.404000E+03
  0.405000E+03
  0.406000E+03
  0.407000E+03
  0.408000E+03
  0.409000E+03
  0.410000E+03
  0.411000E+03
  0.412000E+03
  0.413000E+03
  0.414000E+03
  0.415000E+03
  0.416000E+03
  0.417000E+03
  0.418000E+03
  0.419000E+03
  0.420000E+03
  0.421000E+03
  0.422000E+03
  0.423000E+03
  0.424000E+03
  0.425000E+03
  0.426000E+03
  0.427000E+03
  0.428000E+03
  0.429000E+03
  0.430000E+03
  0.431000E+03
  0.432000E+03
  0.433000E+03
  0.434000E+03
  0.435000E+03
  0.436000E+03
  0.437000E+03
  0.438000E+03
  0.439000E+03
  0.440000E+03
  0.441000E+03
  0.442000E+03
  0.443000E+03
  0.444000E+03
  0.445000E+03
  0.446000E+03
  0.447000E+03
  0.448000E+03
  0.449000E+03
  0.450000E+03
  0.451000E+03
  0.452000E+03
  0.453000E+03
  0.454000E+03
  0.455000E+03
  0.456000E+03
  0.457000E+03
  0.458000E+03
  0.459000E+03
  0.460000E+03
  0.461000E+03
  0.462000E+03
  0.463000E+03
  0.464000E+03
  0.465000E+03
  0.466000E+03
  0.467000E+03
  0.468000E+03
  0.469000E+03
  0.470000E+03
  0.471000E+03
  0.472000E+03
  0.473000E+03
  0.474000E+03
  0.475000E+03
  0.476000E+03
  0.477000E+03
  0.478000E+03
  0.479000E+03
  0.480000E+03
  0.481000E+03
  0.482000E+03
  0.483000E+03
  0.484000E+03
  0.485000E+03
  0.486000E+03
  0.487000E+03
  0.488000E+03
  0.489000E+03
  0.490000E+03
  0.491000E+03
  0.492000E+03
  0.493000E+03
  0.494000E+03
  0.495000E+03
  0.496000E+03
  0.497000E+03
  0.498000E+03
  0.499000E+03
  0.500000E+03
  0.501000E+03
  0.502000E+03
  0.503000E+03
  0.504000E+03
  0.505000E+03
  0.506000E+03
  0.507000E+03
  0.508000E+03
  0.509000E+03
  0.510000E+03
  0.511000E+03
  0.512000E+03
  0.513000E+03
  0.514000E+03
  0.515000E+03
  0.516000E+03
  0.517000E+03
  0.518000E+03
  0.519000E+03
  0.520000E+03
  0.521000E+03
  0.522000E+03
  0.523000E+03
  0.524000E+03
  0.525000E+03
  0.526000E+03
  0.527000E+03
  0.528000E+03
  0.529000E+03
  0.530000E+03
  0.531000E+03
  0.532000E+03
  0.533000E+03
  0.534000E+03
  0.535000E+03
  0.536000E+03
  0.537000E+03
  0.538000E+03
  0.539000E+03
  0.540000E+03
  0.541000E+03
  0.542000E+03
  0.543000E+03
  0.544000E+03
  0.545000E+03
  0.546000E+03
  0.547000E+03
  0.548000E+03
  0.549000E+03
  0.550000E+03
  0.551000E+03
  0.552000E+03
  0.553000E+03
  0.554000E+03
  0.555000E+03
  0.556000E+03
  0.557000E+03
  0.558000E+03
  0.559000E+03
  0.560000E+03
  0.561000E+03
  0.562000E+03
  0.563000E+03
  0.564000E+03
  0.565000E+03
  0.566000E+03
  0.567000E+03
  0.568000E+03
  0.569000E+03
  0.570000E+03
  0.571000E+03
  0.572000E+03
  0.573000E+03
  0.574000E+03
  0.575000E+03
  0.576000E+03
  0.577000E+03
  0.578000E+03
  0.579000E+03
  0.580000E+03
  0.581000E+03
  0.582000E+03
  0.583000E+03
  0.584000E+03
  0.585000E+03
  0.586000E+03
  0.587000E+03
  0.588000E+03
  0.589000E+03
  0.590000E+03
  0.591000E+03
  0.592000E+03
  0.593000E+03
  0.594000E+03
  0.595000E+03
  0.596000E+03
  0.597000E+03
  0.598000E+03
  0.599000E+03
  0.600000E+03
  0.601000E+03
  0.602000E+03
  0.603000E+03
  0.604000E+03
  0.605000E+03
  0.606000E+03
  0.607000E+03
  0.608000E+03
  0.609000E+03
  0.610000E+03
  0.611000E+03
  0.612000E+03
  0.613000E+03
  0.614000E+03
  0.615000E+03
  0.616000E+03
  0.617000E+03
  0.618000E+03
  0.619000E+03
  0.620000E+03
  0.621000E+03
  0.622000E+03
  0.623000E+03
  0.624000E+03
  0.625000E+03
  0.626000E+03
  0.627000E+03
  0.628000E+03
  0.629000E+03
  0.630000E+03
  0.631000E+03
  0.632000E+03
  0.633000E+03
  0.634000E+03
  0.635000E+03
  0.636000E+03
  0.637000E+03
  0.638000E+03
  0.639000E+03
  0.640000E+03
  0.641000E+03
  0.642000E+03
  0.643000E+03
  0.644000E+03
  0.645000E+03
  0.646000E+03
  0.647000E+03
  0.648000E+03
  0.649000E+03
  0.650000E+03
  0.651000E+03
  0.652000E+03
  0.653000E+03
  0.654000E+03
  0.655000E+03
  0.656000E+03
  0.657000E+03
  0.658000E+03
  0.659000E+03
  0.660000E+03
  0.661000E+03
  0.662000E+03
  0.663000E+03
  0.664000E+03
  0.665000E+03
  0.666000E+03
  0.667000E+03
  0.668000E+03
  0.669000E+03
  0.670000E+03
  0.671000E+03
  0.672000E+03
  0.673000E+03
  0.674000E+03
  0.675000E+03
  0.676000E+03
  0.677000E+03
  0.678000E+03
  0.679000E+03
  0.680000E+03
  0.681000E+03
  0.682000E+03
  0.683000E+03
  0.684000E+03
  0.685000E+03
  0.686000E+03
  0.687000E+03
  0.688000E+03
  0.689000E+03
  0.690000E+03
  0.691000E+03
  0.692000E+03
  0.693000E+03
  0.694000E+03
  0.695000E+03
  0.696000E+03
  0.697000E+03
  0.698000E+03
  0.699000E+03
  0.700000E+03
  0.701000E+03
  0.702000E+03
  0.703000E+03
  0.704000E+03
  0.705000E+03
  0.706000E+03
  0.707000E+03
  0.708000E+03
  0.709000E+03
  0.710000E+03
  0.711000E+03
  0.712000E+03
  0.713000E+03
  0.714000E+03
  0.715000E+03
  0.716000E+03
  0.717000E+03
  0.718000E+03
  0.719000E+03
  0.720000E+03
  0.721000E+03
  0.722000E+03
  0.723000E+03
  0.724000E+03
  0.725000E+03
  0.726000E+03
  0.727000E+03
  0.728000E+03
  0.729000E+03
  0.730000E+03
  0.731000E+03
  0.732000E+03
  0.733000E+03
  0.734000E+03
  0.735000E+03
  0.736000E+03
  0.737000E+03
  0.738000E+03
  0.739000E+03
  0.740000E+03
  0.741000E+03
  0.742000E+03
  0.743000E+03
  0.744000E+03
  0.745000E+03
  0.746000E+03
  0.747000E+03
  0.748000E+03
  0.749000E+03
  0.750000E+03
  0.751000E+03
  0.752000E+03
  0.753000E+03
  0.754000E+03
  0.755000E+03
  0.756000E+03
  0.757000E+03
  0.758000E+03
  0.759000E+03
  0.760000E+03
  0.761000E+03
  0.762000E+03
  0.763000E+03
  0.764000E+03
  0.765000E+03
  0.766000E+03
  0.767000E+03
  0.768000E+03
  0.769000E+03
  0.770000E+03
  0.771000E+03
  0.772000E+03
  0.773000E+03
  0.774000E+03
  0.775000E+03
  0.776000E+03
  0.777000E+03
  0.778000E+03
  0.779000E+03
  0.780000E+03
  0.781000E+03
  0.782000E+03
  0.783000E+03
  0.784000E+03
  0.785000E+03
  0.786000E+03
  0.787000E+03
  0.788000E+03
  0.789000E+03
  0.790000E+03
  0.791000E+03
  0.792000E+03
  0.793000E+03
  0.794000E+03
  0.795000E+03
  0.796000E+03
  0.797000E+03
  0.798000E+03
  0.799000E+03
  0.800000E+03
  0.801000E+03
  0.802000E+03
  0.803000E+03
  0.804000E+03
  0.805000E+03
  0.806000E+03
  0.807000E+03
  0.808000E+03
  0.809000E+03
  0.810000E+03
  0.811000E+03
  0.812000E+03
  0.813000E+03
  0.814000E+03
  0.815000E+03
  0.816000E+03
  0.817000E+03
  0.818000E+03
  0.819000E+03
  0.820000E+03
  0.821000E+03
  0.822000E+03
  0.823000E+03
  0.824000E+03
  0.825000E+03
  0.826000E+03
  0.827000E+03
  0.828000E+03
  0.829000E+03
  0.830000E+03
  0.831000E+03
  0.832000E+03
  0.833000E+03
  0.834000E+03
  0.835000E+03
  0.836000E+03
  0.837000E+03
  0.838000E+03
  0.839000E+03
  0.840000E+03
  0.841000E+03
  0.842000E+03
  0.843000E+03
  0.844000E+03
  0.845000E+03
  0.846000E+03
  0.847000E+03
  0.848000E+03
  0.849000E+03
  0.850000E+03
  0.851000E+03
  0.852000E+03
  0.853000E+03
  0.854000E+03
  0.855000E+03
  0.856000E+03
  0.857000E+03
  0.858000E+03
  0.859000E+03
  0.860000E+03
  0.861000E+03
  0.862000E+03
  0.863000E+03
  0.864000E+03
  0.865000E+03
  0.866000E+03
  0.867000E+03
  0.868000E+03
  0.869000E+03
  0.870000E+03
  0.871000E+03
  0.872000E+03
  0.873000E+03
  0.874000E+03
  0.875000E+03
  0.876000E+03
  0.877000E+03
  0.878000E+03
  0.879000E+03
  0.880000E+03
  0.881000E+03
  0.882000E+03
  0.883000E+03
  0.884000E+03
  0.885000E+03
  0.886000E+03
  0.887000E+03
  0.888000E+03
  0.889000E+03
  0.890000E+03
  0.891000E+03
  0.892000E+03
  0.893000E+03
  0.894000E+03
  0.895000E+03
  0.896000E+03
  0.897000E+03
  0.898000E+03
  0.899000E+03
  0.900000E+03
  0.901000E+03
  0.902000E+03
  0.903000E+03
  0.904000E+03
  0.905000E+03
  0.906000E+03
  0.907000E+03
  0.908000E+03
  0.909000E+03
  0.910000E+03
  0.911000E+03
  0.912000E+03
  0.913000E+03
  0.914000E+03
  0.915000E+03
  0.916000E+03
  0.917000E+03
  0.918000E+03
  0.919000E+03
  0.920000E+03
  0.921000E+03
  0.922000E+03
  0.923000E+03
  0.924000E+03
  0.925000E+03
  0.926000E+03
  0.927000E+03
  0.928000E+03
  0.929000E+03
  0.930000E+03
  0.931000E+03
  0.932000E+03
  0.933000E+03
  0.934000E+03
  0.935000E+03
  0.936000E+03
  0.937000E+03
  0.938000E+03
  0.939000E+03
  0.940000E+03
  0.941000E+03
  0.942000E+03
  0.943000E+03
  0.944000E+03
  0.945000E+03
  0.946000E+03
  0.947000E+03
  0.948000E+03
  0.949000E+03
  0.950000E+03
  0.951000E+03
  0.952000E+03
  0.953000E+03
  0.954000E+03
  0.955000E+03
  0.956000E+03
  0.957000E+03
  0.958000E+03
  0.959000E+03
  0.960000E+03
  0.961000E+03
  0.962000E+03
  0.963000E+03
  0.964000E+03
  0.965000E+03
  0.966000E+03
  0.967000E+03
  0.968000E+03
  0.969000E+03
  0.970000E+03
  0.971000E+03
  0.972000E+03
  0.973000E+03
  0.974000E+03
  0.975000E+03
  0.976000E+03
  0.977000E+03
  0.978000E+03
  0.979000E+03
  0.980000E+03
  0.981000E+03
  0.982000E+03
  0.983000E+03
  0.984000E+03
  0.985000E+03
  0.986000E+03
  0.987000E+03
  0.988000E+03
  0.989000E+03
  0.990000E+03
  0.991000E+03
  0.992000E+03
  0.993000E+03
  0.994000E+03
  0.995000E+03
  0.996000E+03
  0.997000E+03
  0.998000E+03
  0.999000E+03
  0.100000E+04
  0.100100E+04
  0.100200E+04
  0.100300E+04
  0.100400E+04
  0.100500E+04
  0.100600E+04
  0.100700E+04
  0.100800E+04
  0.100900E+04
  0.101000E+04
  0.101100E+04
  0.101200E+04
  0.101300E+04
  0.101400E+04
  0.101500E+04
  0.101600E+04
  0.101700E+04
  0.101800E+04
  0.101900E+04
  0.102000E+04
  0.102100E+04
  0.102200E+04
  0.102300E+04
  0.102400E+04
  0.102500E+04
  0.102600E+04
  0.102700E+04
  0.102800E+04
  0.102900E+04
  0.103000E+04
  0.103100E+04
  0.103200E+04
  0.103300E+04
  0.103400E+04
  0.103500E+04
  0.103600E+04
  0.103700E+04
  0.103800E+04
  0.103900E+04
  0.104000E+04
  0.104100E+04
  0.104200E+04
  0.104300E+04
  0.104400E+04
  0.104500E+04
  0.104600E+04
  0.104700E+04
  0.104800E+04
  0.104900E+04
  0.105000E+04
  0.105100E+04
  0.105200E+04
  0.105300E+04
  0.105400E+04
  0.105500E+04
  0.105600E+04
  0.105700E+04
  0.105800E+04
  0.105900E+04
  0.106000E+04
  0.106100E+04
  0.106200E+04
  0.106300E+04
  0.106400E+04
  0.106500E+04
  0.106600E+04
  0.106700E+04
  0.106800E+04
  0.106900E+04
  0.107000E+04
  0.107100E+04
  0.107200E+04
  0.107300E+04
  0.107400E+04
  0.107500E+04
  0.107600E+04
  0.107700E+04
  0.107800E+04
  0.107900E+04
  0.108000E+04
  0.108100E+04
  0.108200E+04
  0.108300E+04
  0.108400E+04
  0.108500E+04
  0.108600E+04
  0.108700E+04
  0.108800E+04
  0.108900E+04
  0.109000E+04
  0.109100E+04
  0.109200E+04
  0.109300E+04
  0.109400E+04
  0.109500E+04
  0.109600E+04
  0.109700E+04
  0.109800E+04
  0.109900E+04
  0.110000E+04
  0.110100E+04
  0.110200E+04
  0.110300E+04
  0.110400E+04
  0.110500E+04
  0.110600E+04
  0.110700E+04
  0.110800E+04
  0.110900E+04
  0.111000E+04
  0.111100E+04
  0.111200E+04
  0.111300E+04
  0.111400E+04
  0.111500E+04
  0.111600E+04
  0.111700E+04
  0.111800E+04
  0.111900E+04
  0.112000E+04
  0.112100E+04
  0.112200E+04
  0.112300E+04
  0.112400E+04
  0.112500E+04
  0.112600E+04
  0.112700E+04
  0.112800E+04
  0.112900E+04
  0.113000E+04
  0.113100E+04
  0.113200E+04
  0.113300E+04
  0.113400E+04
  0.113500E+04
  0.113600E+04
  0.113700E+04
  0.113800E+04
  0.113900E+04
  0.114000E+04
  0.114100E+04
  0.114200E+04
  0.114300E+04
  0.114400E+04
  0.114500E+04
  0.114600E+04
  0.114700E+04
  0.114800E+04
  0.114900E+04
  0.115000E+04
  0.115100E+04
  0.115200E+04
  0.115300E+04
  0.115400E+04
  0.115500E+04
  0.115600E+04
  0.115700E+04
  0.115800E+04
  0.115900E+04
  0.116000E+04
  0.116100E+04
  0.116200E+04
  0.116300E+04
  0.116400E+04
  0.116500E+04
  0.116600E+04
  0.116700E+04
  0.116800E+04
  0.116900E+04
  0.117000E+04
  0.117100E+04
  0.117200E+04
  0.117300E+04
  0.117400E+04
  0.117500E+04
  0.117600E+04
  0.117700E+04
  0.117800E+04
  0.117900E+04
  0.118000E+04
  0.118100E+04
  0.118200E+04
  0.118300E+04
  0.118400E+04
  0.118500E+04
  0.118600E+04
  0.118700E+04
  0.118800E+04
  0.118900E+04
  0.119000E+04
  0.119100E+04
  0.119200E+04
  0.119300E+04
  0.119400E+04
  0.119500E+04
  0.119600E+04
  0.119700E+04
  0.119800E+04
  0.119900E+04
  0.120000E+04
  0.120100E+04
  0.120200E+04
  0.120300E+04
  0.120400E+04
  0.120500E+04
  0.120600E+04
  0.120700E+04
  0.120800E+04
  0.120900E+04
  0.121000E+04
  0.121100E+04
  0.121200E+04
  0.121300E+04
  0.121400E+04
  0.121500E+04
  0.121600E+04
  0.121700E+04
  0.121800E+04
  0.121900E+04
  0.122000E+04
  0.122100E+04
  0.122200E+04
  0.122300E+04
  0.122400E+04
  0.122500E+04
  0.122600E+04
  0.122700E+04
  0.122800E+04
  0.122900E+04
  0.123000E+04
  0.123100E+04
  0.123200E+04
  0.123300E+04
  0.123400E+04
  0.123500E+04
  0.123600E+04
  0.123700E+04
  0.123800E+04
  0.123900E+04
  0.124000E+04
  0.124100E+04
  0.124200E+04
  0.124300E+04
  0.124400E+04
  0.124500E+04
  0.124600E+04
  0.124700E+04
  0.124800E+04
  0.124900E+04
  0.125000E+04
  0.125100E+04
  0.125200E+04
  0.125300E+04
  0.125400E+04
  0.125500E+04
  0.125600E+04
  0.125700E+04
  0.125800E+04
  0.125900E+04
  0.126000E+04
  0.126100E+04
  0.126200E+04
  0.126300E+04
  0.126400E+04
  0.126500E+04
  0.126600E+04
  0.126700E+04
  0.126800E+04
  0.126900E+04
  0.127000E+04
  0.127100E+04
  0.127200E+04
  0.127300E+04
  0.127400E+04
  0.127500E+04
  0.127600E+04
  0.127700E+04
  0.127800E+04
  0.127900E+04
  0.128000E+04
  0.128100E+04
  0.128200E+04
  0.128300E+04
  0.128400E+04
  0.128500E+04
  0.128600E+04
  0.128700E+04
  0.128800E+04
  0.128900E+04
  0.129000E+04
  0.129100E+04
  0.129200E+04
  0.129300E+04
  0.129400E+04
  0.129500E+04
  0.129600E+04
  0.129700E+04
  0.129800E+04
  0.129900E+04
  0.130000E+04
  0.130100E+04
  0.130200E+04
  0.130300E+04
  0.130400E+04
  0.130500E+04
  0.130600E+04
  0.130700E+04
  0.130800E+04
  0.130900E+04
  0.131000E+04
  0.131100E+04
  0.131200E+04
  0.131300E+04
  0.131400E+04
  0.131500E+04
  0.131600E+04
  0.131700E+04
  0.131800E+04
  0.131900E+04
  0.132000E+04
  0.132100E+04
  0.132200E+04
  0.132300E+04
  0.132400E+04
  0.132500E+04
  0.132600E+04
  0.132700E+04
  0.132800E+04