  -2.40000002E-02     1.00000002E-24
  -2.37885993E-02     1.00000002E-24
  -2.35772002E-02     1.00000012E-24
  -2.33657993E-02     1.00000032E-24
  -2.31544003E-02     1.00000022E-24
  -2.29429994E-02     1.00000002E-24
  -2.27316003E-02     1.00000002E-24
  -2.25201994E-02     1.00000022E-24
  -2.23088004E-02     1.00000032E-24
  -2.20973995E-02     1.00000022E-24
  -2.18860004E-02     9.99999921E-25
  -2.16745995E-02     9.99999822E-25
  -2.14632004E-02     1.00000002E-24
  -2.12517995E-02     1.00000032E-24
  -2.10404005E-02     1.00000051E-24
  -2.08289996E-02     1.00000032E-24
  -2.06176005E-02     9.99999921E-25
  -2.04061996E-02     9.99999822E-25
  -2.01948006E-02     1.00000012E-24
  -1.99833997E-02     1.00000022E-24
  -1.97720006E-02     1.00000002E-24
  -1.95605997E-02     1.00000002E-24
  -1.93492007E-02     1.00000012E-24
  -1.91377997E-02     1.00000022E-24
  -1.89264007E-02     1.00000022E-24
  -1.87149998E-02     1.00000012E-24
  -1.85036007E-02     1.00000002E-24
  -1.82921998E-02     9.99999921E-25
  -1.80808008E-02     1.00000022E-24
  -1.78693999E-02     1.00000041E-24
  -1.76580008E-02     1.00000012E-24
  -1.74465999E-02     9.99999625E-25
  -1.72352009E-02     9.99999724E-25
  -1.70237999E-02     1.00000002E-24
  -1.68124009E-02     1.00000022E-24
  -1.66010000E-02     1.00000032E-24
  -1.63895991E-02     1.00000002E-24
  -1.61782000E-02     1.00000012E-24
  -1.59667991E-02     1.00000051E-24
  -1.57554001E-02     1.00000061E-24
  -1.55440001E-02     1.00000051E-24
  -1.53326001E-02     1.00000041E-24
  -1.51212001E-02     9.99999822E-25
  -1.49098001E-02     9.99997850E-25
  -1.46984002E-02     9.99997259E-25
  -1.44870002E-02     1.00000387E-24
  -1.42756002E-02     1.00001402E-24
  -1.40642002E-02     9.99999921E-25
  -1.38528002E-02     9.99949730E-25
  -1.36414003E-02     9.99950617E-25
  -1.34300003E-02     1.00012180E-24
  -1.32186003E-02     1.00028598E-24
  -1.30072003E-02     9.99903088E-25
  -1.27958003E-02     9.99028143E-25
  -1.25844004E-02     9.99309372E-25
  -1.23730004E-02     1.00208123E-24
  -1.21616004E-02     1.00398554E-24
  -1.19502004E-02     9.98425355E-25
  -1.17388004E-02     9.88176770E-25
  -1.15274005E-02     9.92244038E-25
  -1.13159996E-02     1.02078226E-24
  -1.11045996E-02     1.03825159E-24
  -1.08931996E-02     9.90603601E-25
  -1.06817996E-02     9.08664028E-25
  -1.04703996E-02     9.32591757E-25
  -1.02589997E-02     1.11789035E-24
  -1.00475997E-02     1.23723229E-24
  -9.83619969E-03     1.00327448E-24
  -9.62479971E-03     5.96993959E-25
  -9.41339973E-03     6.43982656E-25
  -9.20199975E-03     1.30023851E-24
  -8.99059977E-03     1.71970395E-24
  -8.77919979E-03     1.17990310E-24
  -8.56779981E-03     4.43778041E-25
  -8.35639983E-03     6.58742440E-25
  -8.14499985E-03     1.00456575E-24
  -7.93359987E-03    -5.19250804E-26
  -7.72219989E-03    -4.43174710E-25
  -7.51079991E-03     3.88202909E-24
  -7.29939993E-03     9.20151736E-24
  -7.08799995E-03     2.90315092E-24
  -6.87659997E-03    -1.60887645E-23
  -6.66520000E-03    -2.12216631E-23
  -6.45380002E-03     1.21386208E-23
  -6.24240004E-03     5.33768784E-23
  -6.03100006E-03     3.10816529E-23
  -5.81960008E-03    -5.96174498E-23
  -5.60820010E-03    -1.00058757E-22
  -5.39680012E-03     1.22189742E-23
  -5.18540014E-03     1.62841124E-22
  -4.97400016E-03     1.00565604E-22
  -4.76260018E-03    -1.76839315E-22
  -4.55120020E-03    -2.67837816E-22
  -4.33980022E-03     1.21364382E-22
  -4.12839977E-03     5.44589937E-22
  -3.91699979E-03     1.77253473E-22
  -3.70560004E-03    -8.60905186E-22
  -3.49420006E-03    -1.06228671E-21
  -3.28280008E-03     6.20281607E-22
  -3.07140010E-03     2.49862425E-21
  -2.85999989E-03     1.30544025E-21
  -2.64859991E-03    -3.03089882E-21
  -2.43719993E-03    -5.13103809E-21
  -2.22579995E-03     7.94270440E-24
  -2.01439997E-03     8.22558095E-21
  -1.80299999E-03     7.77800676E-21
  -1.59160001E-03    -5.38348085E-21
  -1.38020003E-03    -1.67167790E-20
  -1.16880005E-03    -7.16010446E-21
  -9.57400014E-04     1.81668136E-20
  -7.45999976E-04     2.65245432E-20
  -5.34599996E-04    -2.84664353E-21
  -3.23199987E-04    -4.03421316E-20
  -1.11800000E-04    -3.10702221E-20
   9.96000017E-05     2.95657422E-20
   3.11000011E-04     6.87088852E-20
   5.22400020E-04     1.88617730E-20
   7.33800000E-04    -7.68918211E-20
   9.45199979E-04    -9.13863066E-20
   1.15659996E-03     2.36595385E-20
   1.36800006E-03     1.40022575E-19
   1.57940004E-03     8.78022623E-20
   1.79080002E-03    -1.07224256E-19
   2.00220011E-03    -2.03648700E-19
   2.21360009E-03    -3.29515216E-20
   2.42500007E-03     2.36281816E-19
   2.63640005E-03     2.45177471E-19
   2.84780003E-03    -9.66923730E-20
   3.05920001E-03    -4.07329842E-19
   3.27059999E-03    -2.37537993E-19
   3.48199997E-03     3.18983643E-19
   3.69339995E-03     6.03198249E-19
   3.90479993E-03     1.43773684E-19
   4.11619991E-03    -6.42503080E-19
   4.32759989E-03    -7.77574953E-19
   4.53899987E-03     9.51026805E-20
   4.75039985E-03     1.05943969E-18
   4.96179983E-03     8.39003712E-19
   5.17319981E-03    -5.60664157E-19
   5.38459979E-03    -1.53430165E-18
   5.59599977E-03    -6.59734286E-19
   5.80740022E-03     1.32363953E-18
   6.01880020E-03     1.99370421E-18
   6.23020018E-03     1.24909636E-19
   6.44160016E-03    -2.37720707E-18
   6.65300013E-03    -2.31909060E-18
   6.86440011E-03     8.06503837E-19
   7.07580009E-03     3.57759048E-18
   7.28720007E-03     2.33695915E-18
   7.49860005E-03    -2.09127410E-18
   7.71000003E-03    -4.64951522E-18
   7.92139955E-03    -1.81028808E-18
   8.13280046E-03     3.66857414E-18
   8.34420044E-03     5.27657810E-18
   8.55560042E-03     4.63387613E-19
   8.76700040E-03    -5.53461792E-18
   8.97840038E-03    -5.22124054E-18
   9.18980036E-03     1.92207658E-18
   9.40120034E-03     7.70765489E-18
   9.61260032E-03     4.37898332E-18
   9.82400030E-03    -5.35468504E-18
   1.00354003E-02    -1.00531991E-17
   1.02468003E-02    -2.72228200E-18
   1.04582002E-02     9.51277639E-18
   1.06696002E-02     1.20941928E-17
   1.08810002E-02     1.86423388E-19
   1.10924002E-02    -1.37591536E-17
   1.13038002E-02    -1.29792372E-17
   1.15152001E-02     3.42392886E-18
   1.17266001E-02     1.73424586E-17
   1.19380001E-02     1.16861025E-17
   1.21494001E-02    -8.47208061E-18
   1.23608001E-02    -1.97603042E-17
   1.25722000E-02    -7.44755704E-18
   1.27836000E-02     1.53917417E-17
   1.29950000E-02     2.11238486E-17
   1.32064000E-02     3.52221777E-19
   1.34178000E-02    -2.42182783E-17
   1.36291999E-02    -2.21115949E-17
   1.38405999E-02     8.14732041E-18
   1.40519999E-02     3.36272345E-17
   1.42633999E-02     2.29739654E-17
   1.44747999E-02    -1.56335134E-17
   1.46861998E-02    -4.02512737E-17
   1.48975998E-02    -2.17743881E-17
   1.51089998E-02     2.09524899E-17
   1.53203998E-02     4.02954153E-17
   1.55317998E-02     1.41770005E-17
   1.57431997E-02    -2.69496370E-17
   1.59546006E-02    -3.42479839E-17
   1.61659997E-02     1.80012906E-18
   1.63774006E-02     3.81664212E-17
   1.65887997E-02     2.88113956E-17
   1.68002006E-02    -1.93543025E-17
   1.70115996E-02    -5.12694253E-17
   1.72230005E-02    -2.69774038E-17
   1.74343996E-02     2.93736302E-17
   1.76458005E-02     5.42936274E-17
   1.78571995E-02     1.79171572E-17
   1.80686004E-02    -3.90492975E-17
   1.82799995E-02    -4.98325795E-17
   1.84914004E-02     1.32700264E-18
   1.87027995E-02     5.87237619E-17
   1.89142004E-02     5.71891566E-17
   1.91255994E-02    -3.52122970E-18
   1.93370003E-02    -5.83212558E-17
   1.95483994E-02    -5.17921637E-17
   1.97598003E-02    -1.44828717E-18
   1.99711993E-02     2.52239463E-17
   2.01826002E-02    -6.78888511E-18
   2.03939993E-02    -5.60540861E-17
   2.06054002E-02    -5.26389121E-17
   2.08167993E-02     1.78522252E-17
   2.10282002E-02     9.42451738E-17
   2.12395992E-02     1.08936213E-16
   2.14510001E-02     6.52684282E-17
   2.16623992E-02     3.14187317E-17
   2.18738001E-02     5.71609994E-17
   2.20851991E-02     1.10667495E-16
   2.22966000E-02     1.08776547E-16
   2.25079991E-02     4.96076095E-18
   2.27194000E-02    -1.66214149E-16
   2.29308009E-02    -3.35965798E-16
   2.31422000E-02    -4.81047693E-16
   2.33536009E-02    -6.44113711E-16
   2.35649999E-02    -8.77066830E-16
   2.37764008E-02    -1.18076488E-15
   2.39877999E-02    -1.51452858E-15
   2.41992008E-02    -1.86199971E-15
   2.44105998E-02    -2.27223746E-15
   2.46220008E-02    -2.82622008E-15
   2.48333998E-02    -3.56914358E-15
   2.50448007E-02    -4.48942624E-15
   2.52561998E-02    -5.56922342E-15
   2.54676007E-02    -6.84713948E-15
   2.56789997E-02    -8.42174790E-15
   2.58904006E-02    -1.03962435E-14
   2.61017997E-02    -1.28329735E-14
   2.63132006E-02    -1.57707150E-14
   2.65245996E-02    -1.92803334E-14
   2.67360006E-02    -2.34911340E-14
   2.69473996E-02    -2.85616494E-14
   2.71588005E-02    -3.46402255E-14
   2.73701996E-02    -4.18708884E-14
   2.75816005E-02    -5.04389824E-14
   2.77929995E-02    -6.05982617E-14
   2.80044004E-02    -7.26471428E-14
   2.82157995E-02    -8.68910250E-14
   2.84272004E-02    -1.03647458E-13
   2.86385994E-02    -1.23293845E-13
   2.88500004E-02    -1.46299639E-13
   2.90613994E-02    -1.73205119E-13
   2.92728003E-02    -2.04577891E-13
   2.94841994E-02    -2.41010310E-13
   2.96956003E-02    -2.83166123E-13
   2.99069993E-02    -3.31822840E-13
   3.01184002E-02    -3.87865467E-13
   3.03297993E-02    -4.52248156E-13
   3.05412002E-02    -5.25978892E-13
   3.07525992E-02    -6.10144042E-13
   3.09640002E-02    -7.05939105E-13
   3.11753992E-02    -8.14670651E-13
   3.13868001E-02    -9.37731663E-13
   3.15981992E-02    -1.07658489E-12
   3.18095982E-02    -1.23277452E-12
   3.20210010E-02    -1.40794559E-12
   3.22324000E-02    -1.60383122E-12
   3.24437991E-02    -1.82221837E-12
   3.26552019E-02    -2.06491877E-12
   3.28666009E-02    -2.33376794E-12
   3.30779999E-02    -2.63062987E-12
   3.32893990E-02    -2.95737198E-12
   3.35008018E-02    -3.31582288E-12
   3.37122008E-02    -3.70773074E-12
   3.39235999E-02    -4.13474593E-12
   3.41349989E-02    -4.59841366E-12
   3.43464017E-02    -5.10015294E-12
   3.45578007E-02    -5.64118370E-12
   3.47691998E-02    -6.22244400E-12
   3.49805988E-02    -6.84455661E-12
   3.51920016E-02    -7.50782683E-12
   3.54034007E-02    -8.21222864E-12
   3.56147997E-02    -8.95730799E-12
   3.58261988E-02    -9.74210383E-12
   3.60376015E-02    -1.05651191E-11
   3.62490006E-02    -1.14243606E-11
   3.64603996E-02    -1.23173182E-11
   3.66717987E-02    -1.32408251E-11
   3.68832015E-02    -1.41909800E-11
   3.70946005E-02    -1.51632231E-11
   3.73059995E-02    -1.61524058E-11
   3.75173986E-02    -1.71527879E-11
   3.77288014E-02    -1.81579266E-11
   3.79402004E-02    -1.91606678E-11
   3.81515995E-02    -2.01532836E-11
   3.83629985E-02    -2.11274713E-11
   3.85744013E-02    -2.20743875E-11
   3.87858003E-02    -2.29847339E-11
   3.89971994E-02    -2.38489367E-11
   3.92085984E-02    -2.46572138E-11
   3.94200012E-02    -2.53995991E-11
   3.96314003E-02    -2.60659272E-11
   3.98427993E-02    -2.66460465E-11
   4.00541984E-02    -2.71301245E-11
   4.02656011E-02    -2.75088233E-11
   4.04770002E-02    -2.77732490E-11
   4.06883992E-02    -2.79148874E-11
   4.08997983E-02    -2.79258804E-11
   4.11112010E-02    -2.77994450E-11
   4.13226001E-02    -2.75300303E-11
   4.15339991E-02    -2.71131693E-11
   4.17453982E-02    -2.65454117E-11
   4.19568010E-02    -2.58245907E-11
   4.21682000E-02    -2.49501600E-11
   4.23795991E-02    -2.39232540E-11
   4.25910018E-02    -2.27464488E-11
   4.28024009E-02    -2.14237673E-11
   4.30137999E-02    -1.99608177E-11
   4.32251990E-02    -1.83648825E-11
   4.34366018E-02    -1.66447342E-11
   4.36480008E-02    -1.48104775E-11
   4.38593999E-02    -1.28735685E-11
   4.40707989E-02    -1.08468651E-11
   4.42822017E-02    -8.74442272E-12
   4.44936007E-02    -6.58110936E-12
   4.47049998E-02    -4.37242386E-12
   4.49163988E-02    -2.13452780E-12
   4.51278016E-02     1.15889029E-13
   4.53392006E-02     2.36200968E-12
   4.55505997E-02     4.58717699E-12
   4.57619987E-02     6.77492307E-12
   4.59734015E-02     8.90895691E-12
   4.61848006E-02     1.09735745E-11
   4.63961996E-02     1.29541638E-11
   4.66075987E-02     1.48373466E-11
   4.68190014E-02     1.66109158E-11
   4.70304005E-02     1.82637811E-11
   4.72417995E-02     1.97862265E-11
   4.74531986E-02     2.11701698E-11
   4.76646014E-02     2.24093088E-11
   4.78760004E-02     2.34990846E-11
   4.80873995E-02     2.44366870E-11
   4.82987985E-02     2.52211446E-11
   4.85102013E-02     2.58532622E-11
   4.87216003E-02     2.63353991E-11
   4.89329994E-02     2.66713561E-11
   4.91443984E-02     2.68665316E-11
   4.93558012E-02     2.69280397E-11
   4.95672002E-02     2.68643111E-11
   4.97785993E-02     2.66847464E-11
   4.99899983E-02     2.63997001E-11
   5.02014011E-02     2.60205191E-11
   5.04128002E-02     2.55592544E-11
   5.06241992E-02     2.50282538E-11
   5.08355983E-02     2.44399275E-11
   5.10470010E-02     2.38068610E-11
   5.12584001E-02     2.31418305E-11
   5.14697991E-02     2.24574474E-11
   5.16811982E-02     2.17657333E-11
   5.18926010E-02     2.10779328E-11
   5.21040000E-02     2.04045600E-11
   5.23153991E-02     1.97553987E-11
   5.25268018E-02     1.91393065E-11
   5.27382009E-02     1.85640982E-11
   5.29495999E-02     1.80365046E-11
   5.31609990E-02     1.75621150E-11
   5.33724017E-02     1.71452106E-11
   5.35838008E-02     1.67886833E-11
   5.37951998E-02     1.64941186E-11
   5.40065989E-02     1.62619172E-11
   5.42180017E-02     1.60913539E-11
   5.44294007E-02     1.59805155E-11
   5.46407998E-02     1.59263262E-11
   5.48521988E-02     1.59246626E-11
   5.50636016E-02     1.59704784E-11
   5.52750006E-02     1.60578616E-11
   5.54863997E-02     1.61801180E-11
   5.56977987E-02     1.63298715E-11
   5.59092015E-02     1.64991978E-11
   5.61206006E-02     1.66797531E-11
   5.63319996E-02     1.68629381E-11
   5.65433986E-02     1.70400985E-11
   5.67548014E-02     1.72026733E-11
   5.69662005E-02     1.73421832E-11
   5.71775995E-02     1.74502548E-11
   5.73889986E-02     1.75187989E-11
   5.76004013E-02     1.75402939E-11
   5.78118004E-02     1.75079725E-11
   5.80231994E-02     1.74158379E-11
   5.82345985E-02     1.72585696E-11
   5.84460013E-02     1.70316209E-11
   5.86574003E-02     1.67313628E-11
   5.88687994E-02     1.63552834E-11
   5.90801984E-02     1.59020349E-11
   5.92916012E-02     1.53713292E-11
   5.95030002E-02     1.47638551E-11
   5.97143993E-02     1.40812561E-11
   5.99257983E-02     1.33262455E-11
   6.01372011E-02     1.25027566E-11
   6.03486001E-02     1.16159487E-11
   6.05599992E-02     1.06719356E-11
   6.07713982E-02     9.67747930E-12
   6.09828010E-02     8.63994900E-12
   6.11942001E-02     7.56755596E-12
   6.14055991E-02     6.46945735E-12
   6.16169982E-02     5.35547518E-12
   6.18284009E-02     4.23571551E-12
   6.20398000E-02     3.12048391E-12
   6.22511990E-02     2.02046669E-12
   6.24626018E-02     9.46737372E-13
   6.26740009E-02    -8.95214011E-14
   6.28854036E-02    -1.07729830E-12
   6.30967990E-02    -2.00578183E-12
   6.33082017E-02    -2.86430753E-12
   6.35195971E-02    -3.64241796E-12
   6.37309998E-02    -4.32995133E-12
   6.39424026E-02    -4.91702469E-12
   6.41537979E-02    -5.39406193E-12
   6.43652007E-02    -5.75203383E-12
   6.45766035E-02    -5.98267833E-12
   6.47879988E-02    -6.07833358E-12
   6.49994016E-02    -6.03153638E-12
   6.52107969E-02    -5.83496749E-12
   6.54221997E-02    -5.48188838E-12
   6.56336024E-02    -4.96646691E-12
   6.58449978E-02    -4.28351408E-12
   6.60564005E-02    -3.42803563E-12
   6.62678033E-02    -2.39529577E-12
   6.64791986E-02    -1.18134203E-12
   6.66906014E-02     2.16774163E-13
   6.69019967E-02     1.80142121E-12
   6.71133995E-02     3.57481861E-12
   6.73248023E-02     5.53880683E-12
   6.75361976E-02     7.69417082E-12
   6.77476004E-02     1.00402664E-11
   6.79590032E-02     1.25752152E-11
   6.81703985E-02     1.52962192E-11
   6.83818012E-02     1.81994819E-11
   6.85931966E-02     2.12797349E-11
   6.88045993E-02     2.45297758E-11
   6.90160021E-02     2.79402248E-11
   6.92273974E-02     3.14994628E-11
   6.94388002E-02     3.51936084E-11
   6.96502030E-02     3.90063572E-11
   6.98615983E-02     4.29186166E-11
   7.00730011E-02     4.69081197E-11
   7.02843964E-02     5.09492622E-11
   7.04957992E-02     5.50132648E-11
   7.07072020E-02     5.90683405E-11
   7.09185973E-02     6.30796734E-11
   7.11300001E-02     6.70091760E-11
   7.13414028E-02     7.08153258E-11
   7.15527982E-02     7.44534573E-11
   7.17642009E-02     7.78763165E-11
   7.19756037E-02     8.10345124E-11
   7.21869990E-02     8.38769471E-11
   7.23984018E-02     8.63510513E-11
   7.26097971E-02     8.84034027E-11
   7.28211999E-02     8.99805716E-11
   7.30326027E-02     9.10302667E-11
   7.32439980E-02     9.15020559E-11
   7.34554008E-02     9.13477904E-11
   7.36668035E-02     9.05222633E-11
   7.38781989E-02     8.89844240E-11
   7.40896016E-02     8.66989050E-11
   7.43009970E-02     8.36371389E-11
   7.45123997E-02     7.97778579E-11
   7.47238025E-02     7.51074758E-11
   7.49351978E-02     6.96209757E-11
   7.51466006E-02     6.33230829E-11
   7.53580034E-02     5.62290006E-11
   7.55693987E-02     4.83645138E-11
   7.57808015E-02     3.97660620E-11
   7.59921968E-02     3.04809442E-11
   7.62035996E-02     2.05674176E-11
   7.64150023E-02     1.00943429E-11
   7.66263977E-02    -8.59400496E-13
   7.68378004E-02    -1.22053869E-11
   7.70492032E-02    -2.38463433E-11
   7.72605985E-02    -3.56773638E-11
   7.74720013E-02    -4.75875589E-11
   7.76833966E-02    -5.94615468E-11
   7.78947994E-02    -7.11806517E-11
   7.81062022E-02    -8.26243310E-11
   7.83175975E-02    -9.36720423E-11
   7.85290003E-02    -1.04205089E-10
   7.87404031E-02    -1.14108424E-10
   7.89517984E-02    -1.23272600E-10
   7.91632012E-02    -1.31595804E-10
   7.93745965E-02    -1.38985976E-10
   7.95859993E-02    -1.45361820E-10
   7.97974020E-02    -1.50653642E-10
   8.00087973E-02    -1.54804405E-10
   8.02202001E-02    -1.57771726E-10
   8.04316029E-02    -1.59529542E-10
   8.06429982E-02    -1.60068236E-10
   8.08544010E-02    -1.59393887E-10
   8.10657963E-02    -1.57527949E-10
   8.12771991E-02    -1.54507671E-10
   8.14886019E-02    -1.50386731E-10
   8.16999972E-02    -1.45234033E-10
   8.19114000E-02    -1.39131692E-10
   8.21228027E-02    -1.32173508E-10
   8.23341981E-02    -1.24464036E-10
   8.25456008E-02    -1.16117761E-10
   8.27570036E-02    -1.07256787E-10
   8.29683989E-02    -9.80083445E-11
   8.31798017E-02    -8.85024554E-11
   8.33911970E-02    -7.88704241E-11
   8.36025998E-02    -6.92431945E-11
   8.38140026E-02    -5.97492333E-11
   8.40253979E-02    -5.05123096E-11
   8.42368007E-02    -4.16494131E-11
   8.44482034E-02    -3.32687107E-11
   8.46595988E-02    -2.54680287E-11
   8.48710015E-02    -1.83341380E-11
   8.50823969E-02    -1.19421122E-11
   8.52937996E-02    -6.35401671E-12
   8.55052024E-02    -1.61724095E-12
   8.57165977E-02     2.23622141E-12
   8.59280005E-02     5.18900201E-12
   8.61394033E-02     7.23747928E-12
   8.63507986E-02     8.39195293E-12
   8.65622014E-02     8.67716662E-12
   8.67735967E-02     8.13185283E-12
   8.69849995E-02     6.80705319E-12
   8.71964023E-02     4.76447050E-12
   8.74077976E-02     2.07555782E-12
   8.76192003E-02    -1.17921406E-12
   8.78306031E-02    -4.91173161E-12
   8.80419984E-02    -9.02804307E-12
   8.82534012E-02    -1.34300618E-11
   8.84647965E-02    -1.80170896E-11
   8.86761993E-02    -2.26872097E-11
   8.88876021E-02    -2.73385828E-11
   8.90989974E-02    -3.18706901E-11
   8.93104002E-02    -3.61858113E-11
   8.95218030E-02    -4.01908368E-11
   8.97331983E-02    -4.37988396E-11
   8.99446011E-02    -4.69298211E-11
   9.01559964E-02    -4.95110272E-11
   9.03673992E-02    -5.14777457E-11
   9.05788019E-02    -5.27744029E-11
   9.07901973E-02    -5.33554555E-11
   9.10016000E-02    -5.31857614E-11
   9.12130028E-02    -5.22407326E-11
   9.14243981E-02    -5.05064150E-11
   9.16358009E-02    -4.79794503E-11
   9.18472037E-02    -4.46669854E-11
   9.20585990E-02    -4.05866868E-11
   9.22700018E-02    -3.57665147E-11
   9.24813971E-02    -3.02438942E-11
   9.26927999E-02    -2.40647450E-11
   9.29042026E-02    -1.72830344E-11
   9.31155980E-02    -9.96083771E-12
   9.33270007E-02    -2.16766514E-12
   9.35384035E-02     6.02128894E-12
   9.37497988E-02     1.45268199E-11
   9.39612016E-02     2.32661633E-11
   9.41725969E-02     3.21528568E-11
   9.43839997E-02     4.10977398E-11
   9.45954025E-02     5.00112139E-11
   9.48067978E-02     5.88049054E-11
   9.50182006E-02     6.73917588E-11
   9.52296034E-02     7.56859575E-11
   9.54409987E-02     8.36041653E-11
   9.56524014E-02     9.10675493E-11
   9.58637968E-02     9.80029322E-11
   9.60751995E-02     1.04342729E-10
   9.62866023E-02     1.10024892E-10
   9.64979976E-02     1.14993924E-10
   9.67094004E-02     1.19201801E-10
   9.69208032E-02     1.22608410E-10
   9.71321985E-02     1.25181449E-10
   9.73436013E-02     1.26896618E-10
   9.75549966E-02     1.27737890E-10
   9.77663994E-02     1.27697478E-10
   9.79778022E-02     1.26775354E-10
   9.81891975E-02     1.24979194E-10
   9.84006003E-02     1.22324734E-10
   9.86120030E-02     1.18835206E-10
   9.88233984E-02     1.14540308E-10
   9.90348011E-02     1.09475533E-10
   9.92461964E-02     1.03682611E-10
   9.94575992E-02     9.72092337E-11
   9.96690020E-02     9.01080460E-11
   9.98803973E-02     8.24352878E-11
  0.100091800         7.42503906E-11
  0.100303203         6.56161861E-11
  0.100514598         5.65984412E-11
  0.100726001         4.72647997E-11
  0.100937396         3.76838907E-11
  0.101148799         2.79251639E-11
  0.101360202         1.80585876E-11
  0.101571597         8.15389249E-12
  0.101783000        -1.72001432E-12
  0.101994403        -1.14952162E-11
  0.102205798        -2.11051471E-11
  0.102417201        -3.04853816E-11
  0.102628604        -3.95741218E-11
  0.102839999        -4.83120939E-11
  0.103051402        -5.66425622E-11
  0.103262797        -6.45122913E-11
  0.103474200        -7.18725773E-11
  0.103685603        -7.86791327E-11
  0.103896998        -8.48915244E-11
  0.104108401        -9.04734412E-11
  0.104319803        -9.53938664E-11
  0.104531199        -9.96276811E-11
  0.104742602        -1.03155068E-10
  0.104953997        -1.05961129E-10
  0.105165400        -1.08036691E-10
  0.105376802        -1.09379408E-10
  0.105588198        -1.09993584E-10
  0.105799600        -1.09888987E-10
  0.106011003        -1.09080182E-10
  0.106222399        -1.07587349E-10
  0.106433801        -1.05436881E-10
  0.106645197        -1.02661130E-10
  0.106856599        -9.92973967E-11
  0.107068002        -9.53872675E-11
  0.107279398        -9.09761572E-11
  0.107490800        -8.61130195E-11
  0.107702203        -8.08497297E-11
  0.107913598        -7.52404458E-11
  0.108125001        -6.93411092E-11
  0.108336397        -6.32087646E-11
  0.108547799        -5.69007758E-11
  0.108759202        -5.04738959E-11
  0.108970597        -4.39834488E-11
  0.109182000        -3.74827322E-11
  0.109393403        -3.10226983E-11
  0.109604798        -2.46514614E-11
  0.109816201        -1.84133715E-11
  0.110027596        -1.23483038E-11
  0.110238999        -6.49156770E-12
  0.110450402        -8.74171883E-13
  0.110661797         4.47746484E-12
  0.110873200         9.54236083E-12
  0.111084603         1.43054058E-11
  0.111295998         1.87566091E-11
  0.111507401         2.28900388E-11
  0.111718804         2.67036809E-11
  0.111930199         3.01999710E-11
  0.112141602         3.33858947E-11
  0.112352997         3.62720236E-11
  0.112564400         3.88713749E-11
  0.112775803         4.11988950E-11
  0.112987198         4.32713934E-11
  0.113198601         4.51073380E-11
  0.113410003         4.67261438E-11
  0.113621399         4.81472605E-11
  0.113832802         4.93894751E-11
  0.114044197         5.04706797E-11
  0.114255600         5.14081486E-11
  0.114467002         5.22187328E-11
  0.114678398         5.29183017E-11
  0.114889801         5.35206636E-11
  0.115101203         5.40370353E-11
  0.115312599         5.44767322E-11
  0.115524001         5.48482613E-11
  0.115735397         5.51597171E-11
  0.115946800         5.54182915E-11
  0.116158202         5.56298584E-11
  0.116369598         5.57992853E-11
  0.116581000         5.59311347E-11
  0.116792403         5.60301215E-11
  0.117003798         5.61014638E-11
  0.117215201         5.61513856E-11
  0.117426597         5.61876483E-11
  0.117637999         5.62195776E-11
  0.117849402         5.62577589E-11
  0.118060797         5.63139639E-11
  0.118272200         5.64013905E-11
  0.118483603         5.65350787E-11
  0.118694998         5.67319108E-11
  0.118906401         5.70103131E-11
  0.119117796         5.73900302E-11
  0.119329199         5.78918094E-11
  0.119540602         5.85367310E-11
  0.119751997         5.93453967E-11
  0.119963400         6.03372352E-11
  0.120174803         6.15303641E-11
  0.120386198         6.29413119E-11
  0.120597601         6.45843795E-11
  0.120809004         6.64705027E-11
  0.121020399         6.86062596E-11
  0.121231802         7.09933085E-11
  0.121443197         7.36281036E-11
  0.121654600         7.65015759E-11
  0.121866003         7.95985014E-11
  0.122077398         8.28968560E-11
  0.122288801         8.63673161E-11
  0.122500204         8.99732927E-11
  0.122711599         9.36714317E-11
  0.122923002         9.74120645E-11
  0.123134397         1.01139139E-10
  0.123345800         1.04789906E-10
  0.123557203         1.08295421E-10
  0.123768598         1.11581938E-10
  0.123980001         1.14572477E-10
  0.124191403         1.17187579E-10
  0.124402799         1.19345769E-10
  0.124614201         1.20964641E-10
  0.124825597         1.21962496E-10
  0.125037000         1.22260133E-10
  0.125248402         1.21781960E-10
  0.125459805         1.20457228E-10
  0.125671193         1.18221807E-10
  0.125882596         1.15019952E-10
  0.126093999         1.10805150E-10
  0.126305401         1.05540694E-10
  0.126516804         9.92009738E-11
  0.126728207         9.17733459E-11
  0.126939595         8.32591079E-11
  0.127150998         7.36733938E-11
  0.127362400         6.30449859E-11
  0.127573803         5.14169263E-11
  0.127785206         3.88470055E-11
  0.127996594         2.54073203E-11
  0.128207996         1.11832071E-11
  0.128419399        -3.72720604E-12
  0.128630802        -1.92134243E-11
  0.128842205        -3.51540706E-11
  0.129053593        -5.14192300E-11
  0.129264995        -6.78720968E-11
  0.129476398        -8.43695599E-11
  0.129687801        -1.00763384E-10
  0.129899204        -1.16902904E-10
  0.130110607        -1.32638081E-10
  0.130321994        -1.47821103E-10
  0.130533397        -1.62307612E-10
  0.130744800        -1.75958581E-10
  0.130956203        -1.88643282E-10
  0.131167606        -2.00241088E-10
  0.131378993        -2.10642254E-10
  0.131590396        -2.19748789E-10
  0.131801799        -2.27476496E-10
  0.132013202        -2.33756958E-10
  0.132224604        -2.38538217E-10
  0.132436007        -2.41784620E-10
  0.132647395        -2.43477016E-10
  0.132858798        -2.43613268E-10
  0.133070201        -2.42208059E-10
  0.133281603        -2.39292336E-10
  0.133493006        -2.34912784E-10
  0.133704394        -2.29131589E-10
  0.133915797        -2.22025329E-10
  0.134127200        -2.13683238E-10
  0.134338602        -2.04205139E-10
  0.134550005        -1.93700514E-10
  0.134761393        -1.82287130E-10
  0.134972796        -1.70089456E-10
  0.135184199        -1.57236710E-10
  0.135395601        -1.43861409E-10
  0.135607004        -1.30097669E-10
  0.135818407        -1.16078508E-10
  0.136029795        -1.01933809E-10
  0.136241198        -8.77895950E-11
  0.136452600        -7.37676933E-11
  0.136664003        -5.99839900E-11
  0.136875406        -4.65459546E-11
  0.137086794        -3.35513908E-11
  0.137298197        -2.10887505E-11
  0.137509599        -9.23708592E-12
  0.137721002         1.93547435E-12
  0.137932405         1.23731069E-11
  0.138143793         2.20319180E-11
  0.138355196         3.08786989E-11
  0.138566598         3.88907621E-11
  0.138778001         4.60567175E-11
  0.138989404         5.23764573E-11
  0.139200807         5.78597205E-11
  0.139412194         6.25249227E-11
  0.139623597         6.63989072E-11
  0.139835000         6.95166771E-11
  0.140046403         7.19201365E-11
  0.140257806         7.36564004E-11
  0.140469193         7.47768583E-11
  0.140680596         7.53366536E-11
  0.140891999         7.53938439E-11
  0.141103402         7.50078263E-11
  0.141314805         7.42384279E-11
  0.141526207         7.31452190E-11
  0.141737595         7.17868473E-11
  0.141948998         7.02197606E-11
  0.142160401         6.84973675E-11
  0.142371804         6.66695796E-11
  0.142583206         6.47824711E-11
  0.142794594         6.28773283E-11
  0.143005997         6.09902129E-11
  0.143217400         5.91524607E-11
  0.143428802         5.73910433E-11
  0.143640205         5.57278147E-11
  0.143851593         5.41783597E-11
  0.144062996         5.27522540E-11
  0.144274399         5.14546773E-11
  0.144485801         5.02873333E-11
  0.144697204         4.92476511E-11
  0.144908607         4.83279736E-11
  0.145119995         4.75166052E-11
  0.145331398         4.67999216E-11
  0.145542800         4.61631948E-11
  0.145754203         4.55896501E-11
  0.145965606         4.50598100E-11
  0.146176994         4.45526949E-11
  0.146388397         4.40477307E-11
  0.146599799         4.35254367E-11
  0.146811202         4.29670188E-11
  0.147022605         4.23542174E-11