# vtk DataFile Version 3.1
inversion grid cell indices
ASCII
DATASET UNSTRUCTURED_GRID
POINTS          112 float
 -0.750000E+01 -0.750000E+01  0.150000E+02
  0.750000E+01 -0.750000E+01  0.150000E+02
  0.000000E+00 -0.750000E+01  0.150000E+02
  0.750000E+01  0.750000E+01  0.150000E+02
  0.750000E+01  0.000000E+00  0.150000E+02
 -0.750000E+01  0.750000E+01  0.150000E+02
  0.000000E+00  0.750000E+01  0.150000E+02
 -0.750000E+01  0.000000E+00  0.150000E+02
  0.250000E+01  0.000000E+00  0.150000E+02
  0.750000E+01 -0.750000E+01  0.000000E+00
  0.750000E+01 -0.750000E+01  0.750000E+01
  0.750000E+01  0.750000E+01  0.000000E+00
  0.750000E+01  0.000000E+00  0.000000E+00
  0.750000E+01  0.750000E+01  0.750000E+01
  0.750000E+01  0.250000E+01  0.750000E+01
 -0.750000E+01 -0.750000E+01  0.000000E+00
 -0.750000E+01 -0.750000E+01  0.750000E+01
  0.000000E+00 -0.750000E+01  0.000000E+00
  0.250000E+01 -0.750000E+01  0.750000E+01
  0.250000E+01  0.000000E+00  0.000000E+00
  0.125000E+01  0.216506E+01  0.000000E+00
 -0.125000E+01  0.216506E+01  0.000000E+00
 -0.250000E+01  0.000000E+00  0.000000E+00
 -0.125000E+01 -0.216506E+01  0.000000E+00
  0.125000E+01 -0.216506E+01  0.000000E+00
  0.250000E+01  0.000000E+00  0.100000E+02
  0.125000E+01  0.216506E+01  0.100000E+02
 -0.125000E+01  0.216506E+01  0.100000E+02
 -0.250000E+01  0.000000E+00  0.100000E+02
 -0.125000E+01 -0.216506E+01  0.100000E+02
  0.125000E+01 -0.216506E+01  0.100000E+02
 -0.124857E+01  0.216589E+01  0.497141E+01
 -0.250000E+01  0.115800E-02  0.496951E+01
 -0.125001E+01 -0.216506E+01  0.496474E+01
  0.124951E+01 -0.216535E+01  0.496551E+01
  0.125200E+01  0.216391E+01  0.496889E+01
  0.250000E+01 -0.970000E-03  0.496020E+01
 -0.995000E-03 -0.250000E+01  0.746938E+01
 -0.216494E+01 -0.125022E+01  0.745429E+01
 -0.216566E+01  0.124897E+01  0.746910E+01
  0.447500E-02  0.250000E+01  0.746833E+01
  0.216568E+01  0.124893E+01  0.746156E+01
  0.216569E+01 -0.124891E+01  0.746288E+01
  0.194000E-03  0.250000E+01  0.246971E+01
 -0.216308E+01  0.125343E+01  0.246808E+01
 -0.216511E+01 -0.124993E+01  0.245868E+01
  0.913000E-03 -0.250000E+01  0.247009E+01
  0.216414E+01 -0.125160E+01  0.246546E+01
  0.216613E+01  0.124815E+01  0.245456E+01
  0.000000E+00 -0.000000E+00  0.100000E+02
 -0.750000E+01  0.750000E+01  0.000000E+00
 -0.750000E+01  0.000000E+00  0.000000E+00
  0.000000E+00  0.750000E+01  0.000000E+00
  0.375000E+01 -0.343301E+01  0.000000E+00
  0.375000E+01  0.343301E+01  0.000000E+00
 -0.375000E+01 -0.343301E+01  0.000000E+00
 -0.291667E+01  0.322169E+01  0.000000E+00
 -0.750000E+01  0.750000E+01  0.750000E+01
 -0.750000E+01 -0.250000E+01  0.750000E+01
 -0.250000E+01  0.750000E+01  0.750000E+01
 -0.337242E+01 -0.378971E+01  0.339166E+01
 -0.291614E+01 -0.437426E+01  0.772795E+01
 -0.484987E+01 -0.117162E+01  0.306245E+01
  0.357234E+01  0.422533E+01  0.411394E+01
  0.299420E+01  0.439429E+01  0.771692E+01
 -0.443461E+01  0.333301E+01  0.452004E+01
  0.463530E+01 -0.556000E-03  0.284189E+01
  0.378659E+01  0.326339E+01  0.117885E+02
 -0.388777E+01 -0.292737E+01  0.120116E+02
  0.447414E+01 -0.405064E+01  0.396249E+01
  0.358108E+01 -0.261199E+01  0.100306E+02
 -0.371708E+01  0.301012E+01  0.120558E+02
 -0.750000E+01 -0.750000E+01  0.150000E+02
  0.750000E+01 -0.750000E+01  0.150000E+02
 -0.250000E+01 -0.750000E+01  0.150000E+02
  0.250000E+01 -0.750000E+01  0.150000E+02
 -0.750000E+01  0.750000E+01  0.150000E+02
 -0.750000E+01  0.250000E+01  0.150000E+02
 -0.750000E+01 -0.250000E+01  0.150000E+02
  0.750000E+01  0.750000E+01  0.150000E+02
  0.250000E+01  0.750000E+01  0.150000E+02
 -0.250000E+01  0.750000E+01  0.150000E+02
  0.750000E+01 -0.250000E+01  0.150000E+02
  0.750000E+01  0.250000E+01  0.150000E+02
  0.738900E-02 -0.288507E+01  0.150000E+02
 -0.392541E+01  0.626900E-02  0.150000E+02
  0.435000E-03  0.290190E+01  0.150000E+02
  0.393007E+01  0.662100E-02  0.150000E+02
 -0.428360E+01 -0.407576E+01  0.150000E+02
  0.428749E+01 -0.407569E+01  0.150000E+02
 -0.428499E+01  0.408163E+01  0.150000E+02
  0.428610E+01  0.408171E+01  0.150000E+02
 -0.750000E+01  0.750000E+01  0.200000E+02
  0.750000E+01  0.750000E+01  0.200000E+02
  0.250000E+01  0.750000E+01  0.200000E+02
 -0.250000E+01  0.750000E+01  0.200000E+02
 -0.750000E+01 -0.750000E+01  0.200000E+02
 -0.750000E+01  0.250000E+01  0.200000E+02
 -0.750000E+01 -0.250000E+01  0.200000E+02
  0.750000E+01 -0.750000E+01  0.200000E+02
  0.750000E+01 -0.250000E+01  0.200000E+02
  0.750000E+01  0.250000E+01  0.200000E+02
 -0.250000E+01 -0.750000E+01  0.200000E+02
  0.250000E+01 -0.750000E+01  0.200000E+02
  0.239800E+01  0.330461E+00  0.200000E+02
 -0.162291E+01  0.344278E+01  0.200000E+02
 -0.307476E+01 -0.756121E+00  0.200000E+02
 -0.138326E+00 -0.400271E+01  0.200000E+02
  0.395194E+01 -0.423445E+01  0.200000E+02
 -0.414262E+01 -0.445177E+01  0.200000E+02
 -0.175805E+01 -0.424080E+01  0.177710E+02
  0.136614E+01 -0.524161E+01  0.175676E+02
CELLS          303        1515
           4
         110
          85
          84
          88
           4
         110
          84
          85
         106
           4
         110
          84
         111
          74
           4
         110
         111
         102
          74
           4
         110
         109
          74
         102
           4
         109
          88
          85
         110
           4
         111
         104
         108
          87
           4
         111
          75
         102
          74
           4
         111
         103
          75
         108
           4
         111
         104
         107
         108
           4
         111
          84
          75
          74
           4
          97
          98
          85
         106
           4
          92
          97
          90
          95
           4
          94
          81
          86
          95
           4
          86
          95
         105
          94
           4
         100
          99
          89
          82
           4
         101
          87
          83
         100
           4
         100
          87
          89
         108
           4
         104
          84
          86
          87
           4
         100
          83
          82
          87
           4
         111
          75
          89
         108
           4
         110
         107
         106
         109
           4
         110
          74
         109
          88
           4
         110
         107
         111
          84
           4
         111
         107
         104
          84
           4
         111
          87
         108
          89
           4
         110
          74
          88
          84
           4
         110
         109
         106
          85
           4
          93
          79
          91
          80
           4
         104
          84
         107
         106
           4
          84
          86
          85
         106
           4
         106
         105
          90
          97
           4
          92
          76
          81
          90
           4
         105
         104
         106
          86
           4
          94
          80
          91
          86
           4
         111
          89
          84
          87
           4
          85
         109
         106
          98
           4
          97
          98
          78
          85
           4
          98
          96
          88
         109
           4
         104
          91
          87
          86
           4
          98
          85
          88
          78
           4
         110
          84
         106
         107
           4
          85
          97
          77
          78
           4
          93
          91
          79
          83
           4
          97
          77
          90
          85
           4
          72
          96
          88
          78
           4
         109
          96
          88
          74
           4
         111
          75
          84
          89
           4
         110
         102
         107
         109
           4
          74
          96
         102
         109
           4
          92
          95
          90
          81
           4
         100
          89
          87
          82
           4
          89
          99
          73
          82
           4
          89
          99
          75
          73
           4
         108
          89
          99
          75
           4
         100
         108
          89
          99
           4
         111
         108
         107
         103
           4
         104
          86
          84
         106
           4
          98
          78
          88
          96
           4
          94
         104
          86
          91
           4
          97
         106
          85
          90
           4
          75
          99
         108
         103
           4
         101
         104
          94
          91
           4
         101
          83
          87
          91
           4
          80
          94
          81
          86
           4
          94
         105
          86
         104
           4
         111
         103
         107
         102
           4
          86
         105
          90
         106
           4
         101
         100
         104
          87
           4
          90
         106
          85
          86
           4
          96
          88
          74
          72
           4
         100
         104
          87
         108
           4
          98
          88
          85
         109
           4
         101
         104
          91
          87
           4
          95
          81
          86
          90
           4
          93
          94
          91
         101
           4
          90
          95
         105
          86
           4
          93
[...]
CELL_DATA          303
SCALARS cell_index float 1
LOOKUP_TABLE default
  0.100000E+01
  0.200000E+01
  0.300000E+01
  0.400000E+01
  0.500000E+01
  0.600000E+01
  0.700000E+01
  0.800000E+01
  0.900000E+01
  0.100000E+02
  0.110000E+02
  0.120000E+02
  0.130000E+02
  0.140000E+02
  0.150000E+02
  0.160000E+02
  0.170000E+02
  0.180000E+02
  0.190000E+02
  0.200000E+02
  0.210000E+02
  0.220000E+02
  0.230000E+02
  0.240000E+02
  0.250000E+02
  0.260000E+02
  0.270000E+02
  0.280000E+02
  0.290000E+02
  0.300000E+02
  0.310000E+02
  0.320000E+02
  0.330000E+02
  0.340000E+02
  0.350000E+02
  0.360000E+02
  0.370000E+02
  0.380000E+02
  0.390000E+02
  0.400000E+02
  0.410000E+02
  0.420000E+02
  0.430000E+02
  0.440000E+02
  0.450000E+02
  0.460000E+02
  0.470000E+02
  0.480000E+02
  0.490000E+02
  0.500000E+02
  0.510000E+02
  0.520000E+02
  0.530000E+02
  0.540000E+02
  0.550000E+02
  0.560000E+02
  0.570000E+02
  0.580000E+02
  0.590000E+02
  0.600000E+02
  0.610000E+02
  0.620000E+02
  0.630000E+02
  0.640000E+02
  0.650000E+02
  0.660000E+02
  0.670000E+02
  0.680000E+02
  0.690000E+02
  0.700000E+02
  0.710000E+02
  0.720000E+02
  0.730000E+02
  0.740000E+02
  0.750000E+02
  0.760000E+02
  0.770000E+02
  0.780000E+02
  0.790000E+02
  0.800000E+02
  0.810000E+02
  0.820000E+02
  0.830000E+02
  0.840000E+02
  0.850000E+02
  0.860000E+02
  0.870000E+02
  0.880000E+02
  0.890000E+02
  0.900000E+02
  0.910000E+02
  0.920000E+02
  0.930000E+02
  0.940000E+02
  0.950000E+02
  0.960000E+02
  0.970000E+02
  0.980000E+02
  0.990000E+02
  0.100000E+03
  0.101000E+03
  0.102000E+03
  0.103000E+03
  0.104000E+03
  0.105000E+03
  0.106000E+03
  0.107000E+03
  0.108000E+03
  0.109000E+03
  0.110000E+03
  0.111000E+03
  0.112000E+03
  0.113000E+03
  0.114000E+03
  0.115000E+03
  0.116000E+03
  0.117000E+03
  0.118000E+03
  0.119000E+03
  0.120000E+03
  0.121000E+03
  0.122000E+03
  0.123000E+03
  0.124000E+03
  0.125000E+03
  0.126000E+03
  0.127000E+03
  0.128000E+03
  0.129000E+03
  0.130000E+03
  0.131000E+03
  0.132000E+03
  0.133000E+03
  0.134000E+03
  0.135000E+03
  0.136000E+03
  0.137000E+03
  0.138000E+03
  0.139000E+03
  0.140000E+03
  0.141000E+03
  0.142000E+03
  0.143000E+03
  0.144000E+03
  0.145000E+03
  0.146000E+03
  0.147000E+03
  0.148000E+03
  0.149000E+03
  0.150000E+03
  0.151000E+03
  0.152000E+03
  0.153000E+03
  0.154000E+03
  0.155000E+03
  0.156000E+03
  0.157000E+03
  0.158000E+03
  0.159000E+03
  0.160000E+03
  0.161000E+03
  0.162000E+03
  0.163000E+03
  0.164000E+03
  0.165000E+03
  0.166000E+03
  0.167000E+03
  0.168000E+03
  0.169000E+03
  0.170000E+03
  0.171000E+03
  0.172000E+03
  0.173000E+03
  0.174000E+03
  0.175000E+03
  0.176000E+03
  0.177000E+03
  0.178000E+03
  0.179000E+03
  0.180000E+03
  0.181000E+03
  0.182000E+03
  0.183000E+03
  0.184000E+03
  0.185000E+03
  0.186000E+03
  0.187000E+03
  0.188000E+03
  0.189000E+03
  0.190000E+03
  0.191000E+03
  0.192000E+03
  0.193000E+03
  0.194000E+03
  0.195000E+03
  0.196000E+03
  0.197000E+03
  0.198000E+03
  0.199000E+03
  0.200000E+03
  0.201000E+03
  0.202000E+03
  0.203000E+03
  0.204000E+03
  0.205000E+03
  0.206000E+03
  0.207000E+03
  0.208000E+03
  0.209000E+03
  0.210000E+03
  0.211000E+03
  0.212000E+03
  0.213000E+03
  0.214000E+03
  0.215000E+03
  0.216000E+03
  0.217000E+03
  0.218000E+03
  0.219000E+03
  0.220000E+03
  0.221000E+03
  0.222000E+03
  0.223000E+03
  0.224000E+03
  0.225000E+03
  0.226000E+03
  0.227000E+03
  0.228000E+03
  0.229000E+03
  0.230000E+03
  0.231000E+03
  0.232000E+03
  0.233000E+03
  0.234000E+03
  0.235000E+03
  0.236000E+03
  0.237000E+03
  0.238000E+03
  0.239000E+03
  0.240000E+03
  0.241000E+03
  0.242000E+03
  0.243000E+03
  0.244000E+03
  0.245000E+03
  0.246000E+03
  0.247000E+03
  0.248000E+03
  0.249000E+03
  0.250000E+03
  0.251000E+03
  0.252000E+03
  0.253000E+03
  0.254000E+03
  0.255000E+03
  0.256000E+03
  0.257000E+03
  0.258000E+03
  0.259000E+03
  0.260000E+03
  0.261000E+03
  0.262000E+03
  0.263000E+03
  0.264000E+03
  0.265000E+03
  0.266000E+03
  0.267000E+03
  0.268000E+03
  0.269000E+03
  0.270000E+03
  0.271000E+03
  0.272000E+03
  0.273000E+03
  0.274000E+03
  0.275000E+03
  0.276000E+03
  0.277000E+03
  0.278000E+03
  0.279000E+03
  0.280000E+03
  0.281000E+03
  0.282000E+03
  0.283000E+03
  0.284000E+03
  0.285000E+03
  0.286000E+03
  0.287000E+03
  0.288000E+03
  0.289000E+03
  0.290000E+03
  0.291000E+03
  0.292000E+03
  0.293000E+03
  0.294000E+03
  0.295000E+03
  0.296000E+03
  0.297000E+03
  0.298000E+03
  0.299000E+03
  0.300000E+03
  0.301000E+03
  0.302000E+03
  0.303000E+03
