# vtk DataFile Version 3.1
inversion grid cell indices
ASCII
DATASET POLYDATA
POINTS          303 float
 -0.248992E+01 -0.279884E+01  0.156927E+02
 -0.218771E+01 -0.196893E+01  0.169427E+02
 -0.721130E+00 -0.496687E+01  0.163346E+02
 -0.134798E+01 -0.612060E+01  0.175846E+02
 -0.272517E+01 -0.592314E+01  0.181927E+02
 -0.352742E+01 -0.319051E+01  0.169427E+02
  0.291154E+01 -0.228474E+01  0.181419E+02
 -0.283466E+00 -0.693540E+01  0.168919E+02
  0.257952E+01 -0.611901E+01  0.181419E+02
  0.189444E+01 -0.328708E+01  0.193919E+02
  0.343382E+00 -0.578167E+01  0.156419E+02
 -0.550004E+01 -0.187463E+00  0.187500E+02
 -0.544625E+01  0.539541E+01  0.187500E+02
 -0.624891E+00  0.635048E+01  0.175000E+02
 -0.405618E+00  0.533617E+01  0.187500E+02
  0.669687E+01 -0.414392E+01  0.175000E+02
  0.660752E+01  0.626655E+00  0.175000E+02
  0.491737E+01 -0.270088E+01  0.175000E+02
  0.158397E+01  0.884782E-01  0.162500E+02
  0.660752E+01 -0.623345E+00  0.162500E+02
  0.302639E+01 -0.526294E+01  0.168919E+02
 -0.227844E+01 -0.336285E+01  0.194427E+02
 -0.317107E+01 -0.506708E+01  0.169427E+02
 -0.130712E+00 -0.409255E+01  0.175846E+02
  0.908300E+00 -0.294973E+01  0.181419E+02
  0.338391E+01 -0.338628E+01  0.168919E+02
 -0.213357E+01 -0.467541E+01  0.156927E+02
 -0.322521E+01 -0.236061E+01  0.181927E+02
  0.544653E+01  0.664543E+01  0.162500E+02
 -0.201924E+00 -0.182836E+01  0.187500E+02
 -0.174808E+01 -0.183255E+00  0.162500E+02
 -0.412067E+01  0.231707E+01  0.187500E+02
 -0.544625E+01  0.664541E+01  0.162500E+02
 -0.574808E+00  0.147976E+01  0.187500E+02
  0.232163E+01  0.549590E+01  0.162500E+02
  0.239777E+01 -0.304894E+01  0.156419E+02
 -0.466070E+01 -0.192540E+01  0.187500E+02
 -0.660635E+01 -0.623433E+00  0.175000E+02
 -0.585655E+01 -0.463188E+01  0.187500E+02
  0.265365E+01  0.183017E+01  0.162500E+02
 -0.580225E+01 -0.226737E+01  0.162500E+02
 -0.124094E+01 -0.297118E+01  0.181927E+02
 -0.660635E+01  0.626567E+00  0.162500E+02
  0.669653E+01  0.539543E+01  0.162500E+02
 -0.580260E+01  0.227198E+01  0.162500E+02
 -0.669590E+01 -0.539394E+01  0.162500E+02
 -0.460655E+01 -0.588188E+01  0.175000E+02
  0.204025E+01 -0.492559E+01  0.156419E+02
 -0.213475E+01 -0.504882E+01  0.194427E+02
 -0.416065E+01 -0.673794E+01  0.187500E+02
 -0.419625E+01  0.664541E+01  0.175000E+02
  0.580439E+01 -0.226727E+01  0.162500E+02
  0.669687E+01 -0.539392E+01  0.162500E+02
  0.544687E+01 -0.664392E+01  0.162500E+02
  0.455986E+01 -0.582753E+01  0.175000E+02
  0.580986E+01 -0.457753E+01  0.187500E+02
  0.191994E+01 -0.524469E+01  0.193919E+02
 -0.167234E+00 -0.102207E+00  0.175000E+02
 -0.669590E+01 -0.414394E+01  0.175000E+02
  0.229613E+01  0.370352E+01  0.175000E+02
 -0.469629E+01  0.145795E+01  0.175000E+02
  0.411298E+01 -0.668361E+01  0.187500E+02
  0.417102E+01  0.360304E+01  0.187500E+02
  0.580404E+01  0.227208E+01  0.162500E+02
  0.625109E+00  0.635048E+01  0.162500E+02
  0.818882E+00  0.354379E+01  0.187500E+02
  0.306953E+00 -0.606108E+01  0.193919E+02
 -0.224556E+01  0.241755E+01  0.175000E+02
  0.533202E+01  0.842705E-01  0.187500E+02
 -0.282118E+01  0.155842E+01  0.162500E+02
 -0.544590E+01 -0.664394E+01  0.162500E+02
  0.444500E+01 -0.159934E+01  0.187500E+02
 -0.496291E+01 -0.275531E+01  0.175000E+02
  0.452854E+01  0.172970E+01  0.175000E+02
 -0.232114E+01  0.549588E+01  0.162500E+02
  0.544653E+01  0.539543E+01  0.187500E+02
 -0.210187E+01  0.448158E+01  0.175000E+02
  0.669653E+01  0.414543E+01  0.175000E+02
 -0.757559E+00 -0.524628E+01  0.188346E+02
 -0.669625E+01  0.414541E+01  0.175000E+02
  0.192540E+01 -0.194740E+01  0.168919E+02
 -0.669625E+01  0.539541E+01  0.162500E+02
  0.966534E+00 -0.693540E+01  0.181419E+02
 -0.397698E+01  0.438110E+01  0.187500E+02
  0.419653E+01  0.664543E+01  0.175000E+02
 -0.398837E+01 -0.297855E+01  0.651848E+01
 -0.683747E+01 -0.279290E+01  0.264061E+01
 -0.589997E+01 -0.302616E+01  0.765613E+00
 -0.416786E+00 -0.413483E+01  0.691552E+01
  0.237217E+01  0.285162E+01  0.225955E+01
  0.179158E+01  0.233656E+01  0.123107E+01
  0.179126E+01 -0.233742E+01  0.123389E+01
  0.289163E+01  0.590490E+01  0.670772E+01
 -0.580557E+01 -0.374033E+01  0.348853E+01
 -0.486807E+01 -0.397358E+01  0.161353E+01
 -0.530379E+00 -0.398869E+01  0.458162E+01
 -0.464997E+01 -0.115116E+01  0.765613E+00
 -0.455557E+01 -0.186504E+01  0.473091E+01
 -0.482112E+01 -0.843613E-01  0.501300E+01
  0.486441E+01  0.191445E+01  0.173896E+01
  0.455191E+01  0.168095E+01  0.485401E+01
  0.411162E+01  0.285165E+01  0.861673E+01
  0.200770E+01  0.433068E+01  0.111263E+02
  0.357020E+01  0.566442E+01  0.105013E+02
  0.436050E+00  0.538984E+01  0.100542E+02
  0.254912E+01  0.276792E+01  0.924173E+01
  0.393450E+01  0.199332E+01  0.600892E+01
  0.214308E+01  0.668133E+01  0.477849E+01
 -0.255471E+01 -0.267923E+01  0.929847E+01
 -0.659442E+00 -0.314811E+01  0.130029E+02
 -0.197903E+01 -0.671856E+01  0.943199E+01
 -0.201348E+01 -0.424167E+01  0.111849E+02
 -0.416534E+00 -0.538483E+01  0.100570E+02
  0.361853E+01 -0.663766E+01  0.286562E+01
  0.508986E+01 -0.187105E+01  0.170109E+01
  0.344339E+01 -0.132594E+01  0.355751E+01
  0.259730E+01 -0.280881E+01  0.222451E+01
  0.652027E+01 -0.190300E+01  0.100076E+02
  0.339527E+01 -0.440300E+01  0.137576E+02
  0.245777E+01 -0.119426E+01  0.112576E+02
  0.183277E+01 -0.494426E+01  0.106326E+02
  0.451380E+01 -0.541566E+01  0.724827E+01
  0.651808E+01  0.355633E+01  0.290349E+01
  0.558058E+01  0.378958E+01  0.102849E+01
  0.581134E+00  0.409731E+01  0.476313E+01
  0.459633E+01 -0.858392E+00  0.710473E+00
  0.459633E+01  0.858114E+00  0.710473E+00
  0.321844E+01  0.136799E+01  0.359265E+01
 -0.459310E+01 -0.657243E+01  0.272291E+01
 -0.655427E+01  0.450253E+01  0.123889E+02
  0.405805E+01  0.309214E+01  0.669811E+01
 -0.388434E+01 -0.188469E+01  0.582887E+01
 -0.242588E+01 -0.289481E+01  0.588466E+01
 -0.659694E+01 -0.510684E+01  0.105029E+02
 -0.245068E+01 -0.158566E+01  0.986648E+01
 -0.411721E+01 -0.276296E+01  0.867347E+01
 -0.284694E+01 -0.731841E+00  0.130029E+02
 -0.209310E+01 -0.657243E+01  0.459791E+01
 -0.357598E+01 -0.557541E+01  0.105599E+02
  0.250915E+01  0.135711E+01  0.116971E+02
  0.353094E+01  0.222648E+01  0.235260E+01
  0.398807E+01  0.175308E+01  0.918750E+01
  0.464308E+01  0.668133E+01  0.290349E+01
  0.199855E+01  0.672357E+01  0.942923E+01
  0.188415E+01  0.323211E+01  0.129471E+02
  0.625000E+00 -0.295753E+01  0.125000E+02
 -0.360865E+01  0.645825E+01  0.300501E+01
 -0.173360E+01  0.520825E+01  0.362244E+01
 -0.558782E+01  0.351368E+01  0.113001E+01
 -0.196152E+01  0.231308E+01  0.360731E+01
 -0.655427E+01  0.200253E+01  0.105139E+02
 -0.280427E+01  0.752529E+00  0.130139E+02
 -0.217927E+01  0.262753E+01  0.142639E+02
 -0.453792E+01  0.533578E+01  0.789395E+01
 -0.186677E+01  0.504380E+01  0.111389E+02
 -0.291951E+01 -0.292028E+00  0.199730E+01
  0.286639E+01 -0.100175E-02  0.194048E+01
 -0.673365E+01  0.458325E+01  0.300501E+01
  0.125005E+01  0.389952E+01  0.617427E+00
 -0.444163E+01  0.512518E+00  0.765613E+00
 -0.178038E+01 -0.430568E+01  0.146544E+01
 -0.124177E+01  0.129380E+01  0.117639E+02
 -0.240819E+01  0.160604E+01  0.988122E+01
 -0.623881E+00  0.358253E+01  0.874208E+01
 -0.312500E+00  0.541266E+00  0.112500E+02
  0.156250E+01 -0.541266E+00  0.112500E+02
  0.625000E+00 -0.483253E+01  0.106250E+02
  0.147867E+01 -0.335349E+01  0.810806E+01
  0.237262E+01  0.190910E+01  0.412440E+01
  0.125023E+01 -0.389952E+01  0.617522E+00
  0.393103E+01 -0.562091E+01  0.990622E+00
 -0.169666E+01 -0.242617E+01  0.332129E+01
 -0.241628E+01 -0.171200E+01  0.614671E+00
 -0.472194E+01 -0.635684E+01  0.123779E+02
 -0.401318E+01 -0.166940E+01  0.924148E+01
 -0.359106E+01  0.165913E+01  0.251264E+01
 -0.222194E+01 -0.260684E+01  0.142529E+02
 -0.232188E+01 -0.180088E+01  0.394615E+01
 -0.331624E+01 -0.146364E+01  0.138028E+01
 -0.258721E+01  0.168726E+01  0.548252E+01
 -0.342927E+01  0.637753E+01  0.123889E+02
 -0.258721E+01  0.356197E+01  0.611514E+01
 -0.147780E+01  0.335351E+01  0.810936E+01
 -0.358265E+01 -0.625311E+00  0.810585E+01
 -0.416783E+00 -0.413483E+01  0.817433E+01
 -0.673365E+01  0.208325E+01  0.488001E+01
 -0.158302E+01 -0.257238E+01  0.816291E+01
 -0.492529E+01  0.134577E+01  0.189562E+01
  0.259733E+01 -0.374123E+01  0.597272E+01
  0.624625E+00 -0.358260E+01  0.622491E+01
 -0.467927E+01  0.450253E+01  0.142639E+02
 -0.158302E+01 -0.257238E+01  0.690409E+01
 -0.217876E+00 -0.532243E+01  0.334044E+01
 -0.128444E+01 -0.127311E+01  0.117529E+02
  0.344665E+01  0.456585E+01  0.141971E+02
  0.147855E+01 -0.335357E+01  0.684944E+01
 -0.607112E+01 -0.846508E-01  0.377062E+01
  0.237419E+01 -0.150649E+01  0.937337E+01
 -0.237854E+01  0.257703E+01  0.236445E+01
  0.624751E+00 -0.358253E+01  0.874234E+01
 -0.472194E+01 -0.448184E+01  0.142529E+02
  0.237250E+01  0.190930E+01  0.537615E+01
  0.174767E+01  0.253435E+01  0.350177E+01
  0.477736E+01 -0.388042E+00  0.481614E+01
  0.160409E+01  0.257678E+01  0.690392E+01
  0.318023E+01 -0.385289E+01  0.723899E+01
  0.183277E+01 -0.306926E+01  0.125076E+02
  0.532165E+01  0.269085E+01  0.141971E+02
  0.532165E+01  0.144085E+01  0.110721E+02
  0.259695E+01 -0.186714E+01  0.408841E+01
  0.286639E+01 -0.124425E-02  0.318053E+01
  0.326286E+01  0.117015E+01  0.132411E+01
  0.358284E+01  0.624762E+00  0.684616E+01
  0.625000E+00  0.108253E+01  0.112500E+02
  0.625102E+00 -0.358260E+01  0.497509E+01
  0.205614E+01 -0.405400E+01  0.472452E+01
  0.228250E-03 -0.358253E+01  0.617522E+00
  0.249605E+01  0.300811E+01  0.606533E+01
  0.156250E+01  0.541266E+00  0.112500E+02
  0.527027E+01 -0.252800E+01  0.137576E+02
  0.205626E+01 -0.437091E+01  0.160814E+01
 -0.282214E+01 -0.579099E+01  0.652990E+01
  0.174376E+01 -0.538766E+01  0.348314E+01
 -0.232184E+01 -0.180096E+01  0.519505E+01
  0.674353E+01 -0.226266E+01  0.474062E+01
  0.160359E+01  0.257707E+01  0.816170E+01
  0.242557E+01  0.166935E+01  0.981250E+01
  0.625000E+00 -0.108253E+01  0.112500E+02
  0.437169E+00  0.413984E+01  0.817131E+01
  0.183063E+01  0.441458E+01  0.164591E+01
  0.580191E+01  0.168119E+01  0.361396E+01
  0.407165E+01  0.815846E+00  0.129471E+02
 -0.183777E+01  0.413868E+01  0.174744E+01
  0.132964E+01  0.457088E+01  0.607494E+01
 -0.445434E+01  0.127303E+01  0.788623E+01
 -0.147744E+01  0.335371E+01  0.685221E+01
 -0.232165E+01 -0.274316E+01  0.208011E+01
 -0.623025E+00  0.358245E+01  0.622716E+01
 -0.158239E+01  0.228505E+01  0.123445E+01
  0.241603E+01 -0.171242E+01  0.616365E+00
  0.437669E+00  0.413955E+01  0.691353E+01
 -0.729118E+00  0.251295E+01  0.617427E+00
 -0.310740E+01  0.825875E+00  0.138263E+01
 -0.353435E+01 -0.241107E+01  0.222820E+01
 -0.220744E+01  0.166005E+01  0.617019E+00
 -0.258657E+01  0.168837E+01  0.423226E+01
 -0.625000E+00  0.483253E+01  0.106250E+02
 -0.416618E+00  0.384669E+01  0.617427E+00
 -0.624095E+00  0.358245E+01  0.497750E+01
  0.393669E+01 -0.340226E+00  0.874837E+01
 -0.659694E+01 -0.323184E+01  0.123779E+02
  0.602736E+01 -0.387799E+00  0.357609E+01
  0.539163E+01  0.465490E+01  0.670772E+01
 -0.532214E+01 -0.454099E+01  0.652990E+01
  0.326236E+01 -0.117129E+01  0.132684E+01
 -0.322185E+01 -0.155252E+01  0.347058E+01
  0.241653E+01  0.171156E+01  0.613639E+00
  0.402027E+01 -0.652997E+00  0.125076E+02
  0.339527E+01 -0.627800E+01  0.118826E+02
  0.527027E+01 -0.627800E+01  0.100076E+02
  0.197217E+01 -0.249190E+01  0.346589E+01
  0.674353E+01 -0.476266E+01  0.286562E+01
 -0.204575E+01  0.387472E+01  0.486529E+01
 -0.348689E+01  0.853996E+00  0.375502E+01
  0.259733E+01 -0.186647E+01  0.533777E+01
  0.527027E+01 -0.279968E-01  0.106326E+02
  0.549353E+01 -0.663766E+01  0.474062E+01
  0.443023E+01 -0.135289E+01  0.723899E+01
 -0.578792E+01  0.283578E+01  0.789395E+01
 -0.646810E+01 -0.532243E+01  0.459791E+01
  0.415996E+01 -0.700132E+00  0.597139E+01
  0.268133E+00  0.543133E+01  0.352091E+01
  0.651808E+01  0.543133E+01  0.477849E+01
  0.652027E+01 -0.440300E+01  0.118826E+02
 -0.371282E+01  0.538868E+01  0.113001E+01
 -0.548365E+01  0.645825E+01  0.488001E+01
  0.237419E+01 -0.338149E+01  0.874837E+01
 -0.534694E+01 -0.135684E+01  0.111279E+02
  0.544520E+01  0.441442E+01  0.862634E+01
 -0.616771E+00  0.316880E+01  0.130139E+02
  0.358284E+01  0.625005E+00  0.810611E+01
  0.370558E+01  0.566458E+01  0.102849E+01
 -0.312500E+00 -0.541266E+00  0.112500E+02
 -0.530427E+01  0.637753E+01  0.105139E+02
 -0.291951E+01 -0.291738E+00  0.323968E+01
 -0.397069E+01  0.439772E+00  0.925622E+01
  0.576380E+01 -0.291566E+01  0.724827E+01
 -0.545098E+01 -0.432541E+01  0.868490E+01
  0.657165E+01  0.519085E+01  0.104471E+02
  0.625000E+00  0.295753E+01  0.125000E+02
  0.375589E+01 -0.218395E+01  0.231746E+01
  0.580603E+01 -0.374591E+01  0.990622E+00
 -0.179105E+01 -0.233700E+01  0.123219E+01
 -0.365560E+01 -0.555568E+01  0.847914E+00
  0.657165E+01  0.331585E+01  0.123221E+02
 -0.358265E+01 -0.625022E+00  0.684823E+01
 -0.125964E+01 -0.445726E+01  0.589609E+01
 -0.320434E+01  0.377303E+01  0.788623E+01
 -0.415007E+01  0.520786E+00  0.611466E+01
 -0.124977E+01 -0.389952E+01  0.617522E+00
  0.469665E+01  0.644085E+01  0.123221E+02
 -0.530427E+01  0.127529E+00  0.111389E+02
 -0.240819E+01  0.348104E+01  0.925622E+01
VERTICES          303         606
           1           0
           1           1
           1           2
           1           3
           1           4
           1           5
           1           6
           1           7
           1           8
           1           9
           1          10
           1          11
           1          12
           1          13
           1          14
           1          15
           1          16
           1          17
           1          18
           1          19
           1          20
           1          21
           1          22
           1          23
           1          24
           1          25
           1          26
           1          27
           1          28
           1          29
           1          30
           1          31
           1          32
           1          33
           1          34
           1          35
           1          36
           1          37
           1          38
           1          39
           1          40
           1          41
           1          42
           1          43
           1          44
           1          45
           1          46
           1          47
           1          48
           1          49
           1          50
           1          51
           1          52
           1          53
           1          54
           1          55
           1          56
           1          57
           1          58
           1          59
           1          60
           1          61
           1          62
           1          63
           1          64
           1          65
           1          66
           1          67
           1          68
           1          69
           1          70
           1          71
           1          72
           1          73
           1          74
           1          75
           1          76
           1          77
           1          78
           1          79
           1          80
           1          81
           1          82
           1          83
           1          84
           1          85
           1          86
           1          87
           1          88
           1          89
           1          90
           1          91
           1          92
           1          93
           1          94
           1          95
           1          96
           1          97
           1          98
           1          99
           1         100
           1         101
           1         102
           1         103
           1         104
           1         105
           1         106
           1         107
           1         108
           1         109
           1         110
           1         111
           1         112
           1         113
           1         114
           1         115
           1         116
           1         117
           1         118
           1         119
           1         120
           1         121
           1         122
           1         123
           1         124
           1         125
           1         126
           1         127
           1         128
           1         129
           1         130
           1         131
           1         132
           1         133
           1         134
           1         135
           1         136
           1         137
           1         138
           1         139
           1         140
           1         141
           1         142
           1         143
           1         144
           1         145
           1         146
           1         147
           1         148
           1         149
           1         150
           1         151
           1         152
           1         153
           1         154
           1         155
           1         156
           1         157
           1         158
           1         159
           1         160
           1         161
           1         162
           1         163
           1         164
           1         165
           1         166
           1         167
           1         168
           1         169
           1         170
           1         171
           1         172
           1         173
           1         174
           1         175
           1         176
           1         177
           1         178
           1         179
           1         180
           1         181
           1         182
           1         183
           1         184
           1         185
           1         186
           1         187
           1         188
           1         189
           1         190
           1         191
           1         192
           1         193
           1         194
           1         195
           1         196
           1         197
           1         198
           1         199
           1         200
           1         201
           1         202
           1         203
           1         204
           1         205
           1         206
           1         207
           1         208
           1         209
           1         210
           1         211
           1         212
           1         213
           1         214
           1         215
           1         216
           1         217
           1         218
           1         219
           1         220
           1         221
           1         222
           1         223
           1         224
           1         225
           1         226
           1         227
           1         228
           1         229
           1         230
           1         231
           1         232
           1         233
           1         234
           1         235
           1         236
           1         237
           1         238
           1         239
           1         240
           1         241
           1         242
           1         243
           1         244
           1         245
           1         246
           1         247
           1         248
           1         249
           1         250
           1         251
           1         252
           1         253
           1         254
           1         255
           1         256
           1         257
           1         258
           1         259
           1         260
           1         261
           1         262
           1         263
           1         264
           1         265
           1         266
           1         267
           1         268
           1         269
           1         270
           1         271
           1         272
           1         273
           1         274
           1         275
           1         276
           1         277
           1         278
           1         279
           1         280
           1         281
           1         282
           1         283
           1         284
           1         285
           1         286
           1         287
           1         288
           1         289
           1         290
           1         291
           1         292
           1         293
           1         294
           1         295
           1         296
           1         297
           1         298
           1         299
           1         300
           1         301
           1         302
POINT_DATA          303
SCALARS cell_index float 1
LOOKUP_TABLE default
  0.100000E+01
  0.200000E+01
  0.300000E+01
  0.400000E+01
  0.500000E+01
  0.600000E+01
  0.700000E+01
  0.800000E+01
  0.900000E+01
  0.100000E+02
  0.110000E+02
  0.120000E+02
  0.130000E+02
  0.140000E+02
  0.150000E+02
  0.160000E+02
  0.170000E+02
  0.180000E+02
  0.190000E+02
  0.200000E+02
  0.210000E+02
  0.220000E+02
  0.230000E+02
  0.240000E+02
  0.250000E+02
  0.260000E+02
  0.270000E+02
  0.280000E+02
  0.290000E+02
  0.300000E+02
  0.310000E+02
  0.320000E+02
  0.330000E+02
  0.340000E+02
  0.350000E+02
  0.360000E+02
  0.370000E+02
  0.380000E+02
  0.390000E+02
  0.400000E+02
  0.410000E+02
  0.420000E+02
  0.430000E+02
  0.440000E+02
  0.450000E+02
  0.460000E+02
  0.470000E+02
  0.480000E+02
  0.490000E+02
  0.500000E+02
  0.510000E+02
  0.520000E+02
  0.530000E+02
  0.540000E+02
  0.550000E+02
  0.560000E+02
  0.570000E+02
  0.580000E+02
  0.590000E+02
  0.600000E+02
  0.610000E+02
  0.620000E+02
  0.630000E+02
  0.640000E+02
  0.650000E+02
  0.660000E+02
  0.670000E+02
  0.680000E+02
  0.690000E+02
  0.700000E+02
  0.710000E+02
  0.720000E+02
  0.730000E+02
  0.740000E+02
  0.750000E+02
  0.760000E+02
  0.770000E+02
  0.780000E+02
  0.790000E+02
  0.800000E+02
  0.810000E+02
  0.820000E+02
  0.830000E+02
  0.840000E+02
  0.850000E+02
  0.860000E+02
  0.870000E+02
  0.880000E+02
  0.890000E+02
  0.900000E+02
  0.910000E+02
  0.920000E+02
  0.930000E+02
  0.940000E+02
  0.950000E+02
  0.960000E+02
  0.970000E+02
  0.980000E+02
  0.990000E+02
  0.100000E+03
  0.101000E+03
  0.102000E+03
  0.103000E+03
  0.104000E+03
  0.105000E+03
  0.106000E+03
  0.107000E+03
  0.108000E+03
  0.109000E+03
  0.110000E+03
  0.111000E+03
  0.112000E+03
  0.113000E+03
  0.114000E+03
  0.115000E+03
  0.116000E+03
  0.117000E+03
  0.118000E+03
  0.119000E+03
  0.120000E+03
  0.121000E+03
  0.122000E+03
  0.123000E+03
  0.124000E+03
  0.125000E+03
  0.126000E+03
  0.127000E+03
  0.128000E+03
  0.129000E+03
  0.130000E+03
  0.131000E+03
  0.132000E+03
  0.133000E+03
  0.134000E+03
  0.135000E+03
  0.136000E+03
  0.137000E+03
  0.138000E+03
  0.139000E+03
  0.140000E+03
  0.141000E+03
  0.142000E+03
  0.143000E+03
  0.144000E+03
  0.145000E+03
  0.146000E+03
  0.147000E+03
  0.148000E+03
  0.149000E+03
  0.150000E+03
  0.151000E+03
  0.152000E+03
  0.153000E+03
  0.154000E+03
  0.155000E+03
  0.156000E+03
  0.157000E+03
  0.158000E+03
  0.159000E+03
  0.160000E+03
  0.161000E+03
  0.162000E+03
  0.163000E+03
  0.164000E+03
  0.165000E+03
  0.166000E+03
  0.167000E+03
  0.168000E+03
  0.169000E+03
  0.170000E+03
  0.171000E+03
  0.172000E+03
  0.173000E+03
  0.174000E+03
  0.175000E+03
  0.176000E+03
  0.177000E+03
  0.178000E+03
  0.179000E+03
  0.180000E+03
  0.181000E+03
  0.182000E+03
  0.183000E+03
  0.184000E+03
  0.185000E+03
  0.186000E+03
  0.187000E+03
  0.188000E+03
  0.189000E+03
  0.190000E+03
  0.191000E+03
  0.192000E+03
  0.193000E+03
  0.194000E+03
  0.195000E+03
  0.196000E+03
  0.197000E+03
  0.198000E+03
  0.199000E+03
  0.200000E+03
  0.201000E+03
  0.202000E+03
  0.203000E+03
  0.204000E+03
  0.205000E+03
  0.206000E+03
  0.207000E+03
  0.208000E+03
  0.209000E+03
  0.210000E+03
  0.211000E+03
  0.212000E+03
  0.213000E+03
  0.214000E+03
  0.215000E+03
  0.216000E+03
  0.217000E+03
  0.218000E+03
  0.219000E+03
  0.220000E+03
  0.221000E+03
  0.222000E+03
  0.223000E+03
  0.224000E+03
  0.225000E+03
  0.226000E+03
  0.227000E+03
  0.228000E+03
  0.229000E+03
  0.230000E+03
  0.231000E+03
  0.232000E+03
  0.233000E+03
  0.234000E+03
  0.235000E+03
  0.236000E+03
  0.237000E+03
  0.238000E+03
  0.239000E+03
  0.240000E+03
  0.241000E+03
  0.242000E+03
  0.243000E+03
  0.244000E+03
  0.245000E+03
  0.246000E+03
  0.247000E+03
  0.248000E+03
  0.249000E+03
  0.250000E+03
  0.251000E+03
  0.252000E+03
  0.253000E+03
  0.254000E+03
  0.255000E+03
  0.256000E+03
  0.257000E+03
  0.258000E+03
  0.259000E+03
  0.260000E+03
  0.261000E+03
  0.262000E+03
  0.263000E+03
  0.264000E+03
  0.265000E+03
  0.266000E+03
  0.267000E+03
  0.268000E+03
  0.269000E+03
  0.270000E+03
  0.271000E+03
  0.272000E+03
  0.273000E+03
  0.274000E+03
  0.275000E+03
  0.276000E+03
  0.277000E+03
  0.278000E+03
  0.279000E+03
  0.280000E+03
  0.281000E+03
  0.282000E+03
  0.283000E+03
  0.284000E+03
  0.285000E+03
  0.286000E+03
  0.287000E+03
  0.288000E+03
  0.289000E+03
  0.290000E+03
  0.291000E+03
  0.292000E+03
  0.293000E+03
  0.294000E+03
  0.295000E+03
  0.296000E+03
  0.297000E+03
  0.298000E+03
  0.299000E+03
  0.300000E+03
  0.301000E+03
  0.302000E+03
  0.303000E+03
